DF-ISE text

Info {
  version   = 1.0
  type      = xyplot
  datasets  = [
    "time"
    "source OuterVoltage" "source InnerVoltage" "source QuasiFermiPotential" "source DisplacementCurrent" "source eCurrent"
    "source hCurrent" "source TotalCurrent" "source Charge" "drain OuterVoltage" "drain InnerVoltage"
    "drain QuasiFermiPotential" "drain DisplacementCurrent" "drain eCurrent" "drain hCurrent" "drain TotalCurrent"
    "drain Charge" "gate OuterVoltage" "gate InnerVoltage" "gate QuasiFermiPotential" "gate DisplacementCurrent"
    "gate eCurrent" "gate hCurrent" "gate TotalCurrent" "gate Charge" ]
  functions = [
    Time
    OuterVoltage InnerVoltage QuasiFermiPotential DisplacementCurrent eCurrent
    hCurrent TotalCurrent Charge OuterVoltage InnerVoltage
    QuasiFermiPotential DisplacementCurrent eCurrent hCurrent TotalCurrent
    Charge OuterVoltage InnerVoltage QuasiFermiPotential DisplacementCurrent
    eCurrent hCurrent TotalCurrent Charge ]
}

Data {
      0.00000000000000E+00
      0.00000000000000E+00   0.00000000000000E+00   0.00000000000000E+00   0.00000000000000E+00   2.32484482374799E-15
      0.00000000000000E+00   2.32484482374799E-15   2.21374139149353E-15   0.00000000000000E+00   0.00000000000000E+00
      0.00000000000000E+00   0.00000000000000E+00   5.76121353769641E-15   0.00000000000000E+00   5.76121353769641E-15
      1.41678152858990E-15   0.00000000000000E+00   0.00000000000000E+00   0.00000000000000E+00   0.00000000000000E+00
      2.90977243932203E-23  -2.90977243932203E-23   0.00000000000000E+00   5.75240514908903E-16
      0.00000000000000E+00
      0.00000000000000E+00   0.00000000000000E+00   0.00000000000000E+00   0.00000000000000E+00   3.06804856012312E-16
      0.00000000000000E+00   3.06804856012312E-16   2.21374139150333E-15   0.00000000000000E+00   0.00000000000000E+00
      0.00000000000000E+00   0.00000000000000E+00   4.75120040351114E-16   0.00000000000000E+00   4.75120040351114E-16
      1.41678152858988E-15   0.00000000000000E+00   0.00000000000000E+00   0.00000000000000E+00   0.00000000000000E+00
     -5.79023331627070E-24   5.79023331627070E-24   0.00000000000000E+00   5.75240514908897E-16
      0.00000000000000E+00
      0.00000000000000E+00   0.00000000000000E+00   0.00000000000000E+00   0.00000000000000E+00   4.22618894087016E-16
      0.00000000000000E+00   4.22618894087016E-16   2.21374139150333E-15   0.00000000000000E+00   0.00000000000000E+00
      0.00000000000000E+00   0.00000000000000E+00  -1.05657856751333E-16   0.00000000000000E+00  -1.05657856751333E-16
      1.41678152858988E-15   0.00000000000000E+00   0.00000000000000E+00   0.00000000000000E+00   0.00000000000000E+00
      2.07038457086828E-24  -2.07038457086828E-24   0.00000000000000E+00   5.75240514908898E-16
      0.00000000000000E+00
      0.00000000000000E+00   0.00000000000000E+00   0.00000000000000E+00   0.00000000000000E+00   6.15646649198113E-16
      0.00000000000000E+00   6.15646649198113E-16   2.21374139150333E-15   0.00000000000000E+00   0.00000000000000E+00
      0.00000000000000E+00   0.00000000000000E+00   1.94603210083941E-16   0.00000000000000E+00   1.94603210083941E-16
      1.41678152858988E-15   0.00000000000000E+00   0.00000000000000E+00   0.00000000000000E+00   0.00000000000000E+00
     -2.85496667626237E-24   2.85496667626237E-24   0.00000000000000E+00   5.75240514908903E-16
      1.00000000000000E-05
      1.50000000000000E-05   1.50000000000000E-05   0.00000000000000E+00   0.00000000000000E+00   2.45579185904633E-10
      0.00000000000000E+00   2.45579185904633E-10   2.21377548019498E-15   0.00000000000000E+00   0.00000000000000E+00
      0.00000000000000E+00   0.00000000000000E+00  -2.45581483307537E-10   0.00000000000000E+00  -2.45581483307537E-10
      1.41678147793209E-15   1.50000000000000E-05   1.50000000000000E-05   0.00000000000000E+00   0.00000000000000E+00
      2.89862339403679E-18  -2.89862339403679E-18   0.00000000000000E+00   5.75264683730247E-16
      2.98000000000000E-05
      4.47000000000000E-05   4.47000000000000E-05   0.00000000000000E+00   0.00000000000000E+00   7.31813769798747E-10
      0.00000000000000E+00   7.31813769798747E-10   2.21384297792273E-15   0.00000000000000E+00   0.00000000000000E+00
      0.00000000000000E+00   0.00000000000000E+00  -7.31812132544032E-10   0.00000000000000E+00  -7.31812132544032E-10
      1.41678137762874E-15   4.47000000000000E-05   4.47000000000000E-05   0.00000000000000E+00   0.00000000000000E+00
     -1.22962266542435E-19   1.22962266542435E-19   0.00000000000000E+00   5.75312542321182E-16
      6.94000000000000E-05
      1.04100000000000E-04   1.04100000000000E-04   0.00000000000000E+00   0.00000000000000E+00   1.70429033014020E-09
      0.00000000000000E+00   1.70429033014020E-09   2.21397798181215E-15   0.00000000000000E+00   0.00000000000000E+00
      0.00000000000000E+00   0.00000000000000E+00  -1.70429190764979E-09   0.00000000000000E+00  -1.70429190764979E-09
      1.41678117701933E-15   1.04100000000000E-04   1.04100000000000E-04   0.00000000000000E+00   0.00000000000000E+00
     -1.76252638981728E-19   1.76252638981728E-19   0.00000000000000E+00   5.75408272328185E-16
      1.48600000000000E-04
      2.22900000000000E-04   2.22900000000000E-04   0.00000000000000E+00   0.00000000000000E+00   3.64927663517975E-09
      0.00000000000000E+00   3.64927663517975E-09   2.21424802333198E-15   0.00000000000000E+00   0.00000000000000E+00
      0.00000000000000E+00   0.00000000000000E+00  -3.64927523655416E-09   0.00000000000000E+00  -3.64927523655416E-09
      1.41678077578911E-15   2.22900000000000E-04   2.22900000000000E-04   0.00000000000000E+00   0.00000000000000E+00
      4.99515171468774E-20  -4.99515171468774E-20   0.00000000000000E+00   5.75599786171299E-16
      3.07000000000000E-04
      4.60500000000000E-04   4.60500000000000E-04   0.00000000000000E+00   0.00000000000000E+00   7.53929416652890E-09
      0.00000000000000E+00   7.53929416652890E-09   2.21478824123348E-15   0.00000000000000E+00   0.00000000000000E+00
      0.00000000000000E+00   0.00000000000000E+00  -7.53929387714633E-09   0.00000000000000E+00  -7.53929387714633E-09
      1.41677997328326E-15   4.60500000000000E-04   4.60500000000000E-04   0.00000000000000E+00   0.00000000000000E+00
      1.05978793287746E-19  -1.05978793287746E-19   0.00000000000000E+00   5.75983029211240E-16
      6.22744000000000E-04
      9.34116000000000E-04   9.34116000000000E-04   0.00000000000000E+00   0.00000000000000E+00   1.52936837279986E-08
      0.00000000000000E+00   1.52936837279986E-08   2.21586561130271E-15   0.00000000000000E+00   0.00000000000000E+00
      0.00000000000000E+00   0.00000000000000E+00  -1.52936851876713E-08   0.00000000000000E+00  -1.52936851876713E-08
      1.41677837344164E-15   9.34116000000000E-04   9.34116000000000E-04   0.00000000000000E+00   0.00000000000000E+00
      2.42142413230714E-19  -2.42142413230714E-19   0.00000000000000E+00   5.76747815578070E-16
      1.25212704000000E-03
      1.87819056000000E-03   1.87819056000000E-03   0.00000000000000E+00   0.00000000000000E+00   3.07518201407967E-08
      0.00000000000000E+00   3.07518201407967E-08   2.21801529167662E-15   0.00000000000000E+00   0.00000000000000E+00
      0.00000000000000E+00   0.00000000000000E+00  -3.07518206366085E-08   0.00000000000000E+00  -3.07518206366085E-08
      1.41677518371384E-15   1.87819056000000E-03   1.87819056000000E-03   0.00000000000000E+00   0.00000000000000E+00
      1.62136689430321E-19  -1.62136689430321E-19   0.00000000000000E+00   5.78275678327950E-16
      2.50669723306667E-03
      3.76004584960000E-03   3.76004584960000E-03   0.00000000000000E+00   0.00000000000000E+00   6.15690227197324E-08
      0.00000000000000E+00   6.15690227197324E-08   2.22230870941817E-15   0.00000000000000E+00   0.00000000000000E+00
      0.00000000000000E+00   0.00000000000000E+00  -6.15690357142434E-08   0.00000000000000E+00  -6.15690357142434E-08
      1.41676882273253E-15   3.76004584960000E-03   3.76004584960000E-03   0.00000000000000E+00   0.00000000000000E+00
      1.38469364596704E-18  -1.38469364596704E-18   0.00000000000000E+00   5.81334605070451E-16
      5.00747381791289E-03
      7.51121072686933E-03   7.51121072686933E-03   0.00000000000000E+00   0.00000000000000E+00   1.23012902876048E-07
      0.00000000000000E+00   1.23012902876048E-07   2.23089988036562E-15   0.00000000000000E+00   0.00000000000000E+00
      0.00000000000000E+00   0.00000000000000E+00  -1.23012878925844E-07   0.00000000000000E+00  -1.23012878925844E-07
      1.41675613231757E-15   7.51121072686933E-03   7.51121072686933E-03   0.00000000000000E+00   0.00000000000000E+00
     -1.62412369020644E-17   1.62412369020644E-17   0.00000000000000E+00   5.87484645611894E-16
      9.99235514370636E-03
      1.49885327155595E-02   1.49885327155595E-02   0.00000000000000E+00   0.00000000000000E+00   2.45545059749159E-07
      0.00000000000000E+00   2.45545059749159E-07   2.24815302888167E-15   0.00000000000000E+00   0.00000000000000E+00
      0.00000000000000E+00   0.00000000000000E+00  -2.45545060764255E-07   0.00000000000000E+00  -2.45545060764255E-07
      1.41673079465015E-15   1.49885327155595E-02   1.49885327155595E-02   0.00000000000000E+00   0.00000000000000E+00
      5.98950429054144E-18  -5.98950429054144E-18   0.00000000000000E+00   5.99947690784080E-16
      1.98956527109494E-02
      2.98434790664241E-02   2.98434790664241E-02   0.00000000000000E+00   0.00000000000000E+00   4.89159565985657E-07
      0.00000000000000E+00   4.89159565985657E-07   2.28291409040471E-15   0.00000000000000E+00   0.00000000000000E+00
      0.00000000000000E+00   0.00000000000000E+00  -4.89159552607222E-07   0.00000000000000E+00  -4.89159552607222E-07
      1.41668030573459E-15   2.98434790664241E-02   2.98434790664241E-02   0.00000000000000E+00   0.00000000000000E+00
     -6.64693103781659E-18   6.64693103781659E-18   0.00000000000000E+00   6.25474048081313E-16
      3.95702038778722E-02
      5.93553058168083E-02   5.93553058168083E-02   0.00000000000000E+00   0.00000000000000E+00   9.73701550673526E-07
      0.00000000000000E+00   9.73701550673526E-07   2.35373449180110E-15   0.00000000000000E+00   0.00000000000000E+00
      0.00000000000000E+00   0.00000000000000E+00  -9.73701523696948E-07   0.00000000000000E+00  -9.73701523696948E-07
      1.41657948610823E-15   5.93553058168083E-02   5.93553058168083E-02   0.00000000000000E+00   0.00000000000000E+00
     -1.87917188036946E-17   1.87917188036946E-17   0.00000000000000E+00   6.78903038338232E-16
      7.86569788628255E-02
      1.17985468294238E-01   1.17985468294238E-01   0.00000000000000E+00   0.00000000000000E+00   1.93772998522171E-06
      0.00000000000000E+00   1.93772998522171E-06   2.50032953956538E-15   0.00000000000000E+00   0.00000000000000E+00
      0.00000000000000E+00   0.00000000000000E+00  -1.93773007426360E-06   0.00000000000000E+00  -1.93773007426360E-06
      1.41637764698146E-15   1.17985468294238E-01   1.17985468294238E-01   0.00000000000000E+00   0.00000000000000E+00
      3.44747263981896E-17  -3.44747263981896E-17   0.00000000000000E+00   7.93593621394800E-16
      1.56048793333033E-01
      2.34073189999550E-01   2.34073189999550E-01   0.00000000000000E+00   0.00000000000000E+00   3.85005421381213E-06
      0.00000000000000E+00   3.85005421381213E-06   2.80810749930432E-15   0.00000000000000E+00   0.00000000000000E+00
      0.00000000000000E+00   0.00000000000000E+00  -3.85005417808982E-06   0.00000000000000E+00  -3.85005417808982E-06
      1.41597426905975E-15   2.34073189999550E-01   2.34073189999550E-01   0.00000000000000E+00   0.00000000000000E+00
      1.30370245028290E-16  -1.30370245028290E-16   0.00000000000000E+00   1.04225343745960E-15
      3.06188913405236E-01
      4.59283370107854E-01   4.59283370107854E-01   0.00000000000000E+00   0.00000000000000E+00   7.62439476162896E-06
      0.00000000000000E+00   7.62439476162896E-06   3.44211293836294E-15   0.00000000000000E+00   0.00000000000000E+00
      0.00000000000000E+00   0.00000000000000E+00  -7.62426931044040E-06   0.00000000000000E+00  -7.62426931044040E-06
      1.41515005575672E-15   4.59283370107854E-01   4.59283370107854E-01   0.00000000000000E+00   0.00000000000000E+00
     -2.24673245448124E-13   2.24673245448124E-13   0.00000000000000E+00   1.56298243413960E-15
      4.33808015466608E-01
      6.50712023199912E-01   6.50712023199912E-01   0.00000000000000E+00   0.00000000000000E+00   1.14963880724865E-05
      0.00000000000000E+00   1.14963880724865E-05   3.89180542396754E-15   0.00000000000000E+00   0.00000000000000E+00
      0.00000000000000E+00   0.00000000000000E+00  -1.14875315064224E-05   0.00000000000000E+00  -1.14875315064224E-05
      1.41204826151226E-15   6.50712023199912E-01   6.50712023199912E-01   0.00000000000000E+00   0.00000000000000E+00
     -1.00259970647069E-13   1.00259970647069E-13   0.00000000000000E+00   2.01912954773824E-15
      6.14176346380014E-01
      9.21264519570021E-01   9.21264519570021E-01   0.00000000000000E+00   0.00000000000000E+00   1.47458144229504E-05
      0.00000000000000E+00   1.47458144229504E-05   3.90312452807782E-15   0.00000000000000E+00   0.00000000000000E+00
      0.00000000000000E+00   0.00000000000000E+00  -1.47358651930719E-05   0.00000000000000E+00  -1.47358651930719E-05
      1.39618787479737E-15   9.21264519570021E-01   9.21264519570021E-01   0.00000000000000E+00   0.00000000000000E+00
     -5.90284142159658E-13   5.90284142159658E-13   0.00000000000000E+00   2.67211402730136E-15
      7.60875922189584E-01
      1.14131388328438E+00   1.14131388328438E+00   0.00000000000000E+00   0.00000000000000E+00   1.67022595500524E-05
      0.00000000000000E+00   1.67022595500524E-05   3.88661829828262E-15   0.00000000000000E+00   0.00000000000000E+00
      0.00000000000000E+00   0.00000000000000E+00  -1.66985848507621E-05   0.00000000000000E+00  -1.66985848507621E-05
      1.38349238358057E-15   1.14131388328438E+00   1.14131388328438E+00   0.00000000000000E+00   0.00000000000000E+00
     -8.74016277940002E-13   8.74016277940002E-13   0.00000000000000E+00   3.19963536202401E-15
      7.97550816141977E-01
      1.19632622421297E+00   1.19632622421297E+00   0.00000000000000E+00   0.00000000000000E+00   1.71199910973600E-05
      0.00000000000000E+00   1.71199910973600E-05   3.88142056873614E-15   0.00000000000000E+00   0.00000000000000E+00
      0.00000000000000E+00   0.00000000000000E+00  -1.71136935637424E-05   0.00000000000000E+00  -1.71136935637424E-05
      1.38034038059995E-15   1.19632622421297E+00   1.19632622421297E+00   0.00000000000000E+00   0.00000000000000E+00
     -1.28551315444344E-12   1.28551315444344E-12   0.00000000000000E+00   3.33036498315827E-15
      8.57208643637869E-01
      1.28581296545680E+00   1.28581296545680E+00   0.00000000000000E+00   0.00000000000000E+00   1.77116737338750E-05
      0.00000000000000E+00   1.77116737338750E-05   3.86873403368513E-15   0.00000000000000E+00   0.00000000000000E+00
      0.00000000000000E+00   0.00000000000000E+00  -1.77083737238997E-05   0.00000000000000E+00  -1.77083737238997E-05
      1.37521202146638E-15   1.28581296545680E+00   1.28581296545680E+00   0.00000000000000E+00   0.00000000000000E+00
     -1.87167348754538E-12   1.87167348754538E-12   0.00000000000000E+00   3.54172473985484E-15
      9.13088142059021E-01
      1.36963221308853E+00   1.36963221308853E+00   0.00000000000000E+00   0.00000000000000E+00   1.81744649522886E-05
      0.00000000000000E+00   1.81744649522886E-05   3.85221966088733E-15   0.00000000000000E+00   0.00000000000000E+00
      0.00000000000000E+00   0.00000000000000E+00  -1.81744882143986E-05   0.00000000000000E+00  -1.81744882143986E-05
      1.37041698156558E-15   1.36963221308853E+00   1.36963221308853E+00   0.00000000000000E+00   0.00000000000000E+00
     -2.22272641115510E-12   2.22272641115510E-12   0.00000000000000E+00   3.73801704322401E-15
      9.13088205652760E-01
      1.36963230847914E+00   1.36963230847914E+00   0.00000000000000E+00   0.00000000000000E+00   1.81743731569069E-05
      0.00000000000000E+00   1.81743731569069E-05   3.85221316963602E-15   0.00000000000000E+00   0.00000000000000E+00
      0.00000000000000E+00   0.00000000000000E+00  -1.81744714207513E-05   0.00000000000000E+00  -1.81744714207513E-05
      1.37041695974892E-15   1.36963230847914E+00   1.36963230847914E+00   0.00000000000000E+00   0.00000000000000E+00
     -2.22217102948516E-12   2.22217102948516E-12   0.00000000000000E+00   3.73801724538868E-15
      9.13088324361072E-01
      1.36963248654161E+00   1.36963248654161E+00   0.00000000000000E+00   0.00000000000000E+00   1.81741528403080E-05
      0.00000000000000E+00   1.81741528403080E-05   3.85220091707871E-15   0.00000000000000E+00   0.00000000000000E+00
      0.00000000000000E+00   0.00000000000000E+00  -1.81744617065230E-05   0.00000000000000E+00  -1.81744617065230E-05
      1.37041691772146E-15   1.36963248654161E+00   1.36963248654161E+00   0.00000000000000E+00   0.00000000000000E+00
     -2.22112848646503E-12   2.22112848646503E-12   0.00000000000000E+00   3.73801759550611E-15
      9.13088381341062E-01
      1.36963257201159E+00   1.36963257201159E+00   0.00000000000000E+00   0.00000000000000E+00   1.81741678377515E-05
      0.00000000000000E+00   1.81741678377515E-05   3.85220184464984E-15   0.00000000000000E+00   0.00000000000000E+00
      0.00000000000000E+00   0.00000000000000E+00  -1.81744688425386E-05   0.00000000000000E+00  -1.81744688425386E-05
      1.37041691482438E-15   1.36963257201159E+00   1.36963257201159E+00   0.00000000000000E+00   0.00000000000000E+00
     -2.22118557439385E-12   2.22118557439385E-12   0.00000000000000E+00   3.73801778991774E-15
      9.13088408691457E-01
      1.36963261303719E+00   1.36963261303719E+00   0.00000000000000E+00   0.00000000000000E+00   1.81740096870235E-05
      0.00000000000000E+00   1.81740096870235E-05   3.85219329552142E-15   0.00000000000000E+00   0.00000000000000E+00
      0.00000000000000E+00   0.00000000000000E+00  -1.81744474341163E-05   0.00000000000000E+00  -1.81744474341163E-05
      1.37041689042450E-15   1.36963261303719E+00   1.36963261303719E+00   0.00000000000000E+00   0.00000000000000E+00
     -2.22050004729075E-12   2.22050004729075E-12   0.00000000000000E+00   3.73801784299047E-15
      9.13088421227055E-01
      1.36963263184058E+00   1.36963263184058E+00   0.00000000000000E+00   0.00000000000000E+00   1.81740403776568E-05
      0.00000000000000E+00   1.81740403776568E-05   3.85219513396194E-15   0.00000000000000E+00   0.00000000000000E+00
      0.00000000000000E+00   0.00000000000000E+00  -1.81744395505541E-05   0.00000000000000E+00  -1.81744395505541E-05
      1.37041689397487E-15   1.36963263184058E+00   1.36963263184058E+00   0.00000000000000E+00   0.00000000000000E+00
     -2.22062765609696E-12   2.22062765609696E-12   0.00000000000000E+00   3.73801789023979E-15
      0.00000000000000E+00
      1.36963263184058E+00   1.36963263184058E+00   0.00000000000000E+00   0.00000000000000E+00   1.81759499815129E-05
      0.00000000000000E+00   1.81759499815129E-05   3.85219579421420E-15   0.00000000000000E+00   0.00000000000000E+00
      0.00000000000000E+00   0.00000000000000E+00  -1.81724489789661E-05   0.00000000000000E+00  -1.81724489789661E-05
      1.37041694284549E-15   1.36963263184058E+00   1.36963263184058E+00   0.00000000000000E+00   0.00000000000000E+00
      1.97790378689624E-12  -1.97790378689624E-12   0.00000000000000E+00   3.73781776319170E-15
      1.00000000000000E-05
      1.36963263184058E+00   1.36963263184058E+00   0.00000000000000E+00   0.00000000000000E+00   1.81759499819811E-05
      0.00000000000000E+00   1.81759499819811E-05   3.85219579421553E-15   0.00000000000000E+00   0.00000000000000E+00
      0.00000000000000E+00   0.00000000000000E+00  -1.81724489771640E-05   0.00000000000000E+00  -1.81724489771640E-05
      1.37041694284559E-15   1.36963263184058E+00   1.36963263184058E+00   0.00000000000000E+00   0.00000000000000E+00
      1.97791225489549E-12  -1.97791225489549E-12   0.00000000000000E+00   3.73781776278732E-15
      3.00000000000000E-05
      1.36963263184058E+00   1.36963263184058E+00   0.00000000000000E+00   0.00000000000000E+00   1.81538991625897E-05
      0.00000000000000E+00   1.81538991625897E-05   3.85219542835801E-15   0.00000000000000E+00   0.00000000000000E+00
      0.00000000000000E+00   0.00000000000000E+00  -1.81503971948958E-05   0.00000000000000E+00  -1.81503971948958E-05
      1.37041697149395E-15   1.36963263184058E+00   1.36963263184058E+00   0.00000000000000E+00   0.00000000000000E+00
      1.97791279960739E-12  -1.97791279960739E-12   0.00000000000000E+00   3.73781799072136E-15
      6.96000000000000E-05
      1.36963263184058E+00   1.36963263184058E+00   0.00000000000000E+00   0.00000000000000E+00   1.81249309818391E-05
      0.00000000000000E+00   1.81249309818391E-05   3.85219494813003E-15   0.00000000000000E+00   0.00000000000000E+00
      0.00000000000000E+00   0.00000000000000E+00  -1.81214277599815E-05   0.00000000000000E+00  -1.81214277599815E-05
      1.37041701015712E-15   1.36963263184058E+00   1.36963263184058E+00   0.00000000000000E+00   0.00000000000000E+00
      1.97790687278249E-12  -1.97790687278249E-12   0.00000000000000E+00   3.73781664233198E-15
      1.48008000000000E-04
      1.36963263184058E+00   1.36963263184058E+00   0.00000000000000E+00   0.00000000000000E+00   1.80680360538801E-05
      0.00000000000000E+00   1.80680360538801E-05   3.85219400632935E-15   0.00000000000000E+00   0.00000000000000E+00
      0.00000000000000E+00   0.00000000000000E+00  -1.80645304058159E-05   0.00000000000000E+00  -1.80645304058159E-05
      1.37041708965625E-15   1.36963263184058E+00   1.36963263184058E+00   0.00000000000000E+00   0.00000000000000E+00
      1.97790892418930E-12  -1.97790892418930E-12   0.00000000000000E+00   3.73780772780302E-15
      3.03778560000000E-04
      1.36963263184058E+00   1.36963263184058E+00   0.00000000000000E+00   0.00000000000000E+00   1.79566714925351E-05
      0.00000000000000E+00   1.79566714925351E-05   3.85219216827964E-15   0.00000000000000E+00   0.00000000000000E+00
      0.00000000000000E+00   0.00000000000000E+00  -1.79531612706520E-05   0.00000000000000E+00  -1.79531612706520E-05
      1.37041725929142E-15   1.36963263184058E+00   1.36963263184058E+00   0.00000000000000E+00   0.00000000000000E+00
      1.97790372484728E-12  -1.97790372484728E-12   0.00000000000000E+00   3.73776694838521E-15
      6.13242739200000E-04
      1.36963263184058E+00   1.36963263184058E+00   0.00000000000000E+00   0.00000000000000E+00   1.77409996737211E-05
      0.00000000000000E+00   1.77409996737211E-05   3.85218862832235E-15   0.00000000000000E+00   0.00000000000000E+00
      0.00000000000000E+00   0.00000000000000E+00  -1.77374813480187E-05   0.00000000000000E+00  -1.77374813480187E-05
      1.37041763980724E-15   1.36963263184058E+00   1.36963263184058E+00   0.00000000000000E+00   0.00000000000000E+00
      1.97789211077392E-12  -1.97789211077392E-12   0.00000000000000E+00   3.73760588414010E-15
      1.22804490854400E-03
      1.36963263184058E+00   1.36963263184058E+00   0.00000000000000E+00   0.00000000000000E+00   1.73290803041762E-05
      0.00000000000000E+00   1.73290803041762E-05   3.85218192639858E-15   0.00000000000000E+00   0.00000000000000E+00
      0.00000000000000E+00   0.00000000000000E+00  -1.73255491221371E-05   0.00000000000000E+00  -1.73255491221371E-05
      1.37041852902281E-15   1.36963263184058E+00   1.36963263184058E+00   0.00000000000000E+00   0.00000000000000E+00
      1.97785085339626E-12  -1.97785085339626E-12   0.00000000000000E+00   3.73703592447101E-15
      2.44535320384512E-03
      1.36963263184058E+00   1.36963263184058E+00   0.00000000000000E+00   0.00000000000000E+00   1.65564054648434E-05
      0.00000000000000E+00   1.65564054648434E-05   3.85216948306989E-15   0.00000000000000E+00   0.00000000000000E+00
      0.00000000000000E+00   0.00000000000000E+00  -1.65528566465120E-05   0.00000000000000E+00  -1.65528566465120E-05
      1.37042057528979E-15   1.36963263184058E+00   1.36963263184058E+00   0.00000000000000E+00   0.00000000000000E+00
      1.97782865538407E-12  -1.97782865538407E-12   0.00000000000000E+00   3.73521727531933E-15
      4.84750823990600E-03
      1.36963263184058E+00   1.36963263184058E+00   0.00000000000000E+00   0.00000000000000E+00   1.51549477491001E-05
      0.00000000000000E+00   1.51549477491001E-05   3.85214710871451E-15   0.00000000000000E+00   0.00000000000000E+00
      0.00000000000000E+00   0.00000000000000E+00  -1.51513776325901E-05   0.00000000000000E+00  -1.51513776325901E-05
      1.37042492865087E-15   1.36963263184058E+00   1.36963263184058E+00   0.00000000000000E+00   0.00000000000000E+00
      1.97773762780008E-12  -1.97773762780008E-12   0.00000000000000E+00   3.72933909346261E-15
      9.57174647749239E-03
      1.36963263184058E+00   1.36963263184058E+00   0.00000000000000E+00   0.00000000000000E+00   1.28915241307195E-05
      0.00000000000000E+00   1.28915241307195E-05   3.85211116751477E-15   0.00000000000000E+00   0.00000000000000E+00
      0.00000000000000E+00   0.00000000000000E+00  -1.28879307289123E-05   0.00000000000000E+00  -1.28879307289123E-05
      1.37043267587444E-15   1.36963263184058E+00   1.36963263184058E+00   0.00000000000000E+00   0.00000000000000E+00
      1.97752180314327E-12  -1.97752180314327E-12   0.00000000000000E+00   3.70281885536668E-15
      1.87997585015778E-02
      1.36963263184058E+00   1.36963263184058E+00   0.00000000000000E+00   0.00000000000000E+00   1.00752903677021E-05
      0.00000000000000E+00   1.00752903677021E-05   3.85206658451900E-15   0.00000000000000E+00   0.00000000000000E+00
      0.00000000000000E+00   0.00000000000000E+00  -1.00716764076532E-05   0.00000000000000E+00  -1.00716764076532E-05
      1.37044290363619E-15   1.36963263184058E+00   1.36963263184058E+00   0.00000000000000E+00   0.00000000000000E+00
      1.97710250531930E-12  -1.97710250531930E-12   0.00000000000000E+00   3.63591981097926E-15
      3.67021018283035E-02
      1.36963263184058E+00   1.36963263184058E+00   0.00000000000000E+00   0.00000000000000E+00   9.57804039024974E-06
      0.00000000000000E+00   9.57804039024974E-06   3.85205871029293E-15   0.00000000000000E+00   0.00000000000000E+00
      0.00000000000000E+00   0.00000000000000E+00  -9.57442269793229E-06   0.00000000000000E+00  -9.57442269793229E-06
      1.37044470878755E-15   1.36963263184058E+00   1.36963263184058E+00   0.00000000000000E+00   0.00000000000000E+00
      1.97718968128638E-12  -1.97718968128638E-12   0.00000000000000E+00   3.61989978384675E-15
      7.10746010156169E-02
      1.36963263184058E+00   1.36963263184058E+00   0.00000000000000E+00   0.00000000000000E+00   9.57804038847986E-06
      0.00000000000000E+00   9.57804038847986E-06   3.85205871027260E-15   0.00000000000000E+00   0.00000000000000E+00
      0.00000000000000E+00   0.00000000000000E+00  -9.57442269636958E-06   0.00000000000000E+00  -9.57442269636958E-06
      1.37044470878624E-15   1.36963263184058E+00   1.36963263184058E+00   0.00000000000000E+00   0.00000000000000E+00
      1.97706003851655E-12  -1.97706003851655E-12   0.00000000000000E+00   3.61989978978568E-15
      1.37528099444423E-01
      1.36963263184058E+00   1.36963263184058E+00   0.00000000000000E+00   0.00000000000000E+00   9.57804038549839E-06
      0.00000000000000E+00   9.57804038549839E-06   3.85205871026410E-15   0.00000000000000E+00   0.00000000000000E+00
      0.00000000000000E+00   0.00000000000000E+00  -9.57442269594350E-06   0.00000000000000E+00  -9.57442269594350E-06
      1.37044470878568E-15   1.36963263184058E+00   1.36963263184058E+00   0.00000000000000E+00   0.00000000000000E+00
      1.97700617449760E-12  -1.97700617449760E-12   0.00000000000000E+00   3.61989979225385E-15
      2.70435096302034E-01
      1.36963263184058E+00   1.36963263184058E+00   0.00000000000000E+00   0.00000000000000E+00   9.57804038825233E-06
      0.00000000000000E+00   9.57804038825233E-06   3.85205871026781E-15   0.00000000000000E+00   0.00000000000000E+00
      0.00000000000000E+00   0.00000000000000E+00  -9.57442269743032E-06   0.00000000000000E+00  -9.57442269743032E-06
      1.37044470878592E-15   1.36963263184058E+00   1.36963263184058E+00   0.00000000000000E+00   0.00000000000000E+00
      1.97702963892199E-12  -1.97702963892199E-12   0.00000000000000E+00   3.61989979117900E-15
      5.36249090017258E-01
      1.36963263184058E+00   1.36963263184058E+00   0.00000000000000E+00   0.00000000000000E+00   9.57804038819427E-06
      0.00000000000000E+00   9.57804038819427E-06   3.85205871027016E-15   0.00000000000000E+00   0.00000000000000E+00
      0.00000000000000E+00   0.00000000000000E+00  -9.57442269862684E-06   0.00000000000000E+00  -9.57442269862684E-06
      1.37044470878607E-15   1.36963263184058E+00   1.36963263184058E+00   0.00000000000000E+00   0.00000000000000E+00
      1.97704460184624E-12  -1.97704460184624E-12   0.00000000000000E+00   3.61989979049295E-15
      1.00000000000000E+00
      1.36963263184058E+00   1.36963263184058E+00   0.00000000000000E+00   0.00000000000000E+00   9.57804038814578E-06
      0.00000000000000E+00   9.57804038814578E-06   3.85205871026890E-15   0.00000000000000E+00   0.00000000000000E+00
      0.00000000000000E+00   0.00000000000000E+00  -9.57442269816376E-06   0.00000000000000E+00  -9.57442269816376E-06
      1.37044470878599E-15   1.36963263184058E+00   1.36963263184058E+00   0.00000000000000E+00   0.00000000000000E+00
      1.97703660111278E-12  -1.97703660111278E-12   0.00000000000000E+00   3.61989979085980E-15
      0.00000000000000E+00
      1.36963263184058E+00   1.36963263184058E+00   0.00000000000000E+00   0.00000000000000E+00   1.23306748486863E-03
      0.00000000000000E+00   1.23306748486863E-03  -5.49858939723685E-12   0.00000000000000E+00   0.00000000000000E+00