DF-ISE text

Info {
  version   = 1.0
  type      = xyplot
  datasets  = [
    "time"
    "source OuterVoltage" "source InnerVoltage" "source QuasiFermiPotential" "source DisplacementCurrent" "source eCurrent"
    "source hCurrent" "source TotalCurrent" "source Charge" "drain OuterVoltage" "drain InnerVoltage"
    "drain QuasiFermiPotential" "drain DisplacementCurrent" "drain eCurrent" "drain hCurrent" "drain TotalCurrent"
    "drain Charge" "gate OuterVoltage" "gate InnerVoltage" "gate QuasiFermiPotential" "gate DisplacementCurrent"
    "gate eCurrent" "gate hCurrent" "gate TotalCurrent" "gate Charge" ]
  functions = [
    Time
    OuterVoltage InnerVoltage QuasiFermiPotential DisplacementCurrent eCurrent
    hCurrent TotalCurrent Charge OuterVoltage InnerVoltage
    QuasiFermiPotential DisplacementCurrent eCurrent hCurrent TotalCurrent
    Charge OuterVoltage InnerVoltage QuasiFermiPotential DisplacementCurrent
    eCurrent hCurrent TotalCurrent Charge ]
}

Data {
      0.00000000000000E+00
      1.36963263184058E+00   1.36963263184058E+00   0.00000000000000E+00   0.00000000000000E+00   9.00487072564224E-06
      0.00000000000000E+00   9.00487072564224E-06   1.45602463631458E-15   0.00000000000000E+00   0.00000000000000E+00
      0.00000000000000E+00   0.00000000000000E+00  -9.00513927345131E-06   0.00000000000000E+00  -9.00513927345131E-06
      1.27519897813187E-15   2.10000000000000E+00   2.10000000000000E+00   0.00000000000000E+00   0.00000000000000E+00
      1.46156343225002E-11  -1.46156343225002E-11   0.00000000000000E+00   6.96586488172601E-15
      5.00000000000000E-03
      1.36963263184058E+00   1.36963263184058E+00   0.00000000000000E+00   0.00000000000000E+00   9.00200871418879E-06
      0.00000000000000E+00   9.00200871418879E-06   1.45614532756478E-15   0.00000000000000E+00   0.00000000000000E+00
      0.00000000000000E+00   0.00000000000000E+00  -9.00215810076182E-06   0.00000000000000E+00  -9.00215810076182E-06
      1.27519766539232E-15   2.10050000000000E+00   2.10050000000000E+00   0.00000000000000E+00   0.00000000000000E+00
      8.34503107385348E-12  -8.34503107385348E-12   0.00000000000000E+00   6.96906914026386E-15
      1.00000000000000E-02
      1.36963263184058E+00   1.36963263184058E+00   0.00000000000000E+00   0.00000000000000E+00   8.99999188659521E-06
      0.00000000000000E+00   8.99999188659521E-06   1.45620179645462E-15   0.00000000000000E+00   0.00000000000000E+00
      0.00000000000000E+00   0.00000000000000E+00  -9.00019905603070E-06   0.00000000000000E+00  -9.00019905603070E-06
      1.27519633218435E-15   2.10100000000000E+00   2.10100000000000E+00   0.00000000000000E+00   0.00000000000000E+00
      9.94559388457211E-12  -9.94559388457211E-12   0.00000000000000E+00   6.97108494790425E-15
      1.50000000000000E-02
      1.36963263184058E+00   1.36963263184058E+00   0.00000000000000E+00   0.00000000000000E+00   8.99746873289060E-06
      0.00000000000000E+00   8.99746873289060E-06   1.45623502327748E-15   0.00000000000000E+00   0.00000000000000E+00
      0.00000000000000E+00   0.00000000000000E+00  -8.99767459239711E-06   0.00000000000000E+00  -8.99767459239711E-06
      1.27519487077208E-15   2.10150000000000E+00   2.10150000000000E+00   0.00000000000000E+00   0.00000000000000E+00
      9.72944529327747E-12  -9.72944529327747E-12   0.00000000000000E+00   6.97336963970502E-15
      2.00000000000000E-02
      1.36963263184058E+00   1.36963263184058E+00   0.00000000000000E+00   0.00000000000000E+00   8.99428439316507E-06
      0.00000000000000E+00   8.99428439316507E-06   1.45629791002491E-15   0.00000000000000E+00   0.00000000000000E+00
      0.00000000000000E+00   0.00000000000000E+00  -8.99436177443113E-06   0.00000000000000E+00  -8.99436177443113E-06
      1.27519336189912E-15   2.10200000000000E+00   2.10200000000000E+00   0.00000000000000E+00   0.00000000000000E+00
      4.88713080887843E-12  -4.88713080887843E-12   0.00000000000000E+00   6.97634993965987E-15
      2.50000000000000E-02
      1.36963263184058E+00   1.36963263184058E+00   0.00000000000000E+00   0.00000000000000E+00   8.99359706871460E-06
      0.00000000000000E+00   8.99359706871460E-06   1.45630052823613E-15   0.00000000000000E+00   0.00000000000000E+00
      0.00000000000000E+00   0.00000000000000E+00  -8.99388976537006E-06   0.00000000000000E+00  -8.99388976537006E-06
      1.27519222827221E-15   2.10250000000000E+00   2.10250000000000E+00   0.00000000000000E+00   0.00000000000000E+00
      1.60629971956920E-11  -1.60629971956920E-11   0.00000000000000E+00   6.97692606981585E-15
      3.00000000000000E-02
      1.36963263184058E+00   1.36963263184058E+00   0.00000000000000E+00   0.00000000000000E+00   8.98903213350660E-06
      0.00000000000000E+00   8.98903213350660E-06   1.45637089842537E-15   0.00000000000000E+00   0.00000000000000E+00
      0.00000000000000E+00   0.00000000000000E+00  -8.98904731409567E-06   0.00000000000000E+00  -8.98904731409567E-06
      1.27519044811329E-15   2.10300000000000E+00   2.10300000000000E+00   0.00000000000000E+00   0.00000000000000E+00
      3.19772857427658E-12  -3.19772857427658E-12   0.00000000000000E+00   6.98110793403196E-15
      3.50000000000000E-02
      1.36963263184058E+00   1.36963263184058E+00   0.00000000000000E+00   0.00000000000000E+00   8.98835374795219E-06
      0.00000000000000E+00   8.98835374795219E-06   1.45637817335894E-15   0.00000000000000E+00   0.00000000000000E+00
      0.00000000000000E+00   0.00000000000000E+00  -8.98857906530505E-06   0.00000000000000E+00  -8.98857906530505E-06
      1.27518931236162E-15   2.10350000000000E+00   2.10350000000000E+00   0.00000000000000E+00   0.00000000000000E+00
      1.38412519479084E-11  -1.38412519479084E-11   0.00000000000000E+00   6.98176530286978E-15
      4.00000000000000E-02
      1.36963263184058E+00   1.36963263184058E+00   0.00000000000000E+00   0.00000000000000E+00   8.98646889567626E-06
      0.00000000000000E+00   8.98646889567626E-06   1.45639886530791E-15   0.00000000000000E+00   0.00000000000000E+00
      0.00000000000000E+00   0.00000000000000E+00  -8.98669480751494E-06   0.00000000000000E+00  -8.98669480751494E-06
      1.27518796949120E-15   2.10400000000000E+00   2.10400000000000E+00   0.00000000000000E+00   0.00000000000000E+00
      1.75696954517140E-11  -1.75696954517140E-11   0.00000000000000E+00   6.98345743096167E-15
      4.50000000000000E-02
      1.36963263184058E+00   1.36963263184058E+00   0.00000000000000E+00   0.00000000000000E+00   8.98550485083689E-06
      0.00000000000000E+00   8.98550485083689E-06   1.45639754792580E-15   0.00000000000000E+00   0.00000000000000E+00
      0.00000000000000E+00   0.00000000000000E+00  -8.98522638183296E-06   0.00000000000000E+00  -8.98522638183296E-06
      1.27518675762471E-15   2.10450000000000E+00   2.10450000000000E+00   0.00000000000000E+00   0.00000000000000E+00
      2.70684118052092E-11  -2.70684118052092E-11   0.00000000000000E+00   6.98428046291352E-15
      5.00000000000000E-02
      1.36963263184058E+00   1.36963263184058E+00   0.00000000000000E+00   0.00000000000000E+00   8.98093860993895E-06
      0.00000000000000E+00   8.98093860993895E-06   1.45643983535866E-15   0.00000000000000E+00   0.00000000000000E+00
      0.00000000000000E+00   0.00000000000000E+00  -8.98121021868838E-06   0.00000000000000E+00  -8.98121021868838E-06
      1.27518491470761E-15   2.10500000000000E+00   2.10500000000000E+00   0.00000000000000E+00   0.00000000000000E+00
      1.62911489506481E-11  -1.62911489506481E-11   0.00000000000000E+00   6.98814942693389E-15
      5.50000000000000E-02
      1.36963263184058E+00   1.36963263184058E+00   0.00000000000000E+00   0.00000000000000E+00   8.97938193881580E-06
      0.00000000000000E+00   8.97938193881580E-06   1.45644350749441E-15   0.00000000000000E+00   0.00000000000000E+00
      0.00000000000000E+00   0.00000000000000E+00  -8.97960260662603E-06   0.00000000000000E+00  -8.97960260662603E-06
      1.27518359163031E-15   2.10550000000000E+00   2.10550000000000E+00   0.00000000000000E+00   0.00000000000000E+00
      2.21794276548074E-11  -2.21794276548074E-11   0.00000000000000E+00   6.98951570458643E-15
      6.00000000000000E-02
      1.36963263184058E+00   1.36963263184058E+00   0.00000000000000E+00   0.00000000000000E+00   8.97488939104629E-06
      0.00000000000000E+00   8.97488939104629E-06   1.45651458900648E-15   0.00000000000000E+00   0.00000000000000E+00
      0.00000000000000E+00   0.00000000000000E+00  -8.97505223849855E-06   0.00000000000000E+00  -8.97505223849855E-06
      1.27518183506667E-15   2.10600000000000E+00   2.10600000000000E+00   0.00000000000000E+00   0.00000000000000E+00
      1.01167743612594E-11  -1.01167743612594E-11   0.00000000000000E+00   6.99357907084381E-15
      6.50000000000000E-02
      1.36963263184058E+00   1.36963263184058E+00   0.00000000000000E+00   0.00000000000000E+00   8.97230731080869E-06
      0.00000000000000E+00   8.97230731080869E-06   1.45655086108363E-15   0.00000000000000E+00   0.00000000000000E+00
      0.00000000000000E+00   0.00000000000000E+00  -8.97238474185341E-06   0.00000000000000E+00  -8.97238474185341E-06
      1.27518036333679E-15   2.10650000000000E+00   2.10650000000000E+00   0.00000000000000E+00   0.00000000000000E+00
      9.25492130659165E-12  -9.25492130659165E-12   0.00000000000000E+00   6.99596029223912E-15
      7.00000000000000E-02
      1.36963263184058E+00   1.36963263184058E+00   0.00000000000000E+00   0.00000000000000E+00   8.96829575869268E-06
      0.00000000000000E+00   8.96829575869268E-06   1.45661153378653E-15   0.00000000000000E+00   0.00000000000000E+00
      0.00000000000000E+00   0.00000000000000E+00  -8.96829527094144E-06   0.00000000000000E+00  -8.96829527094144E-06
      1.27517867696714E-15   2.10700000000000E+00   2.10700000000000E+00   0.00000000000000E+00   0.00000000000000E+00
      6.34546967284015E-13  -6.34546967284015E-13   0.00000000000000E+00   6.99950294701420E-15
      7.50000000000000E-02
      1.36963263184058E+00   1.36963263184058E+00   0.00000000000000E+00   0.00000000000000E+00   8.96673704934130E-06
      0.00000000000000E+00   8.96673704934130E-06   1.45665488580800E-15   0.00000000000000E+00   0.00000000000000E+00
      0.00000000000000E+00   0.00000000000000E+00  -8.96689444677010E-06   0.00000000000000E+00  -8.96689444677010E-06
      1.27517744426036E-15   2.10750000000000E+00   2.10750000000000E+00   0.00000000000000E+00   0.00000000000000E+00
      5.17339959106652E-12  -5.17339959106652E-12   0.00000000000000E+00   7.00107897904816E-15
      8.00000000000000E-02
      1.36963263184058E+00   1.36963263184058E+00   0.00000000000000E+00   0.00000000000000E+00   8.96600929881026E-06
      0.00000000000000E+00   8.96600929881026E-06   1.45666200558802E-15   0.00000000000000E+00   0.00000000000000E+00
      0.00000000000000E+00   0.00000000000000E+00  -8.96627335306779E-06   0.00000000000000E+00  -8.96627335306779E-06
      1.27517629334482E-15   2.10800000000000E+00   2.10800000000000E+00   0.00000000000000E+00   0.00000000000000E+00
      1.53769986237749E-11  -1.53769986237749E-11   0.00000000000000E+00   7.00180217757005E-15
      8.50000000000000E-02
      1.36963263184058E+00   1.36963263184058E+00   0.00000000000000E+00   0.00000000000000E+00   8.96106075777143E-06
      0.00000000000000E+00   8.96106075777143E-06   1.45674310962530E-15   0.00000000000000E+00   0.00000000000000E+00
      0.00000000000000E+00   0.00000000000000E+00  -8.96109095850429E-06   0.00000000000000E+00  -8.96109095850429E-06
      1.27517445796478E-15   2.10850000000000E+00   2.10850000000000E+00   0.00000000000000E+00   0.00000000000000E+00
      6.24031239443505E-13  -6.24031239443505E-13   0.00000000000000E+00   7.00626439587304E-15
      9.00000000000000E-02
      1.36963263184058E+00   1.36963263184058E+00   0.00000000000000E+00   0.00000000000000E+00   8.95994033095545E-06
      0.00000000000000E+00   8.95994033095545E-06   1.45677442983864E-15   0.00000000000000E+00   0.00000000000000E+00
      0.00000000000000E+00   0.00000000000000E+00  -8.96004896877958E-06   0.00000000000000E+00  -8.96004896877958E-06
      1.27517327182327E-15   2.10900000000000E+00   2.10900000000000E+00   0.00000000000000E+00   0.00000000000000E+00
      7.61867753969009E-12  -7.61867753969009E-12   0.00000000000000E+00   7.00747214634935E-15
      9.50000000000000E-02
      1.36963263184058E+00   1.36963263184058E+00   0.00000000000000E+00   0.00000000000000E+00   8.95873444488882E-06
      0.00000000000000E+00   8.95873444488882E-06   1.45678736753573E-15   0.00000000000000E+00   0.00000000000000E+00
      0.00000000000000E+00   0.00000000000000E+00  -8.95896272508041E-06   0.00000000000000E+00  -8.95896272508041E-06
      1.27517206554711E-15   2.10950000000000E+00   2.10950000000000E+00   0.00000000000000E+00   0.00000000000000E+00
      1.57702543011934E-11  -1.57702543011934E-11   0.00000000000000E+00   7.00850259492129E-15
      1.00000000000000E-01
      1.36963263184058E+00   1.36963263184058E+00   0.00000000000000E+00   0.00000000000000E+00   8.95669645805028E-06
      0.00000000000000E+00   8.95669645805028E-06   1.45680524757057E-15   0.00000000000000E+00   0.00000000000000E+00
      0.00000000000000E+00   0.00000000000000E+00  -8.95701643008221E-06   0.00000000000000E+00  -8.95701643008221E-06
      1.27517066501213E-15   2.11000000000000E+00   2.11000000000000E+00   0.00000000000000E+00   0.00000000000000E+00
      1.85882219528479E-11  -1.85882219528479E-11   0.00000000000000E+00   7.01033041387298E-15
      1.05000000000000E-01
      1.36963263184058E+00   1.36963263184058E+00   0.00000000000000E+00   0.00000000000000E+00   8.95190188927018E-06
      0.00000000000000E+00   8.95190188927018E-06   1.45692325551809E-15   0.00000000000000E+00   0.00000000000000E+00
      0.00000000000000E+00   0.00000000000000E+00  -8.95196758657263E-06   0.00000000000000E+00  -8.95196758657263E-06
      1.27516896936230E-15   2.11050000000000E+00   2.11050000000000E+00   0.00000000000000E+00   0.00000000000000E+00
      2.96056362393932E-12  -2.96056362393932E-12   0.00000000000000E+00   7.01492954146209E-15
      1.10000000000000E-01
      1.36963263184058E+00   1.36963263184058E+00   0.00000000000000E+00   0.00000000000000E+00   8.95062089083061E-06
      0.00000000000000E+00   8.95062089083061E-06   1.45696077974810E-15   0.00000000000000E+00   0.00000000000000E+00
      0.00000000000000E+00   0.00000000000000E+00  -8.95087127046516E-06   0.00000000000000E+00  -8.95087127046516E-06
      1.27516778431665E-15   2.11100000000000E+00   2.11100000000000E+00   0.00000000000000E+00   0.00000000000000E+00
      9.14655185123941E-12  -9.14655185123941E-12   0.00000000000000E+00   7.01625863848316E-15
      1.15000000000000E-01
      1.36963263184058E+00   1.36963263184058E+00   0.00000000000000E+00   0.00000000000000E+00   8.94771452192900E-06
      0.00000000000000E+00   8.94771452192900E-06   1.45713260071289E-15   0.00000000000000E+00   0.00000000000000E+00
      0.00000000000000E+00   0.00000000000000E+00  -8.94771112160782E-06   0.00000000000000E+00  -8.94771112160782E-06
      1.27516660529208E-15   2.11150000000000E+00   2.11150000000000E+00   0.00000000000000E+00   0.00000000000000E+00
      4.29499747139370E-13  -4.29499747139370E-13   0.00000000000000E+00   7.01983180942037E-15
      1.20000000000000E-01
      1.36963263184058E+00   1.36963263184058E+00   0.00000000000000E+00   0.00000000000000E+00   8.94647663934556E-06
      0.00000000000000E+00   8.94647663934556E-06   1.45716398473493E-15   0.00000000000000E+00   0.00000000000000E+00
      0.00000000000000E+00   0.00000000000000E+00  -8.94656369397044E-06   0.00000000000000E+00  -8.94656369397044E-06
      1.27516540111369E-15   2.11200000000000E+00   2.11200000000000E+00   0.00000000000000E+00   0.00000000000000E+00
      7.17161483854510E-12  -7.17161483854510E-12   0.00000000000000E+00   7.02107740757493E-15
      1.25000000000000E-01
      1.36963263184058E+00   1.36963263184058E+00   0.00000000000000E+00   0.00000000000000E+00   8.94425571511157E-06
      0.00000000000000E+00   8.94425571511157E-06   1.45723080634108E-15   0.00000000000000E+00   0.00000000000000E+00
      0.00000000000000E+00   0.00000000000000E+00  -8.94448264022271E-06   0.00000000000000E+00  -8.94448264022271E-06
      1.27516411781323E-15   2.11250000000000E+00   2.11250000000000E+00   0.00000000000000E+00   0.00000000000000E+00
      7.35710364372899E-12  -7.35710364372899E-12   0.00000000000000E+00   7.02330651824913E-15
      1.30000000000000E-01
      1.36963263184058E+00   1.36963263184058E+00   0.00000000000000E+00   0.00000000000000E+00   8.94312834998427E-06
      0.00000000000000E+00   8.94312834998427E-06   1.45724627111802E-15   0.00000000000000E+00   0.00000000000000E+00
      0.00000000000000E+00   0.00000000000000E+00  -8.94332949096967E-06   0.00000000000000E+00  -8.94332949096967E-06
      1.27516290128141E-15   2.11300000000000E+00   2.11300000000000E+00   0.00000000000000E+00   0.00000000000000E+00
      1.49316138147132E-11  -1.49316138147132E-11   0.00000000000000E+00   7.02442406384073E-15
      1.35000000000000E-01
      1.36963263184058E+00   1.36963263184058E+00   0.00000000000000E+00   0.00000000000000E+00   8.93971837334081E-06
      0.00000000000000E+00   8.93971837334081E-06   1.45728299208669E-15   0.00000000000000E+00   0.00000000000000E+00
      0.00000000000000E+00   0.00000000000000E+00  -8.93994432024095E-06   0.00000000000000E+00  -8.93994432024095E-06
      1.27516128374977E-15   2.11350000000000E+00   2.11350000000000E+00   0.00000000000000E+00   0.00000000000000E+00
      1.02034065306769E-11  -1.02034065306769E-11   0.00000000000000E+00   7.02738278888412E-15
      1.40000000000000E-01
      1.36963263184058E+00   1.36963263184058E+00   0.00000000000000E+00   0.00000000000000E+00   8.93635097727845E-06
      0.00000000000000E+00   8.93635097727845E-06   1.45740040853996E-15   0.00000000000000E+00   0.00000000000000E+00
      0.00000000000000E+00   0.00000000000000E+00  -8.93638445317215E-06   0.00000000000000E+00  -8.93638445317215E-06
      1.27515988103846E-15   2.11400000000000E+00   2.11400000000000E+00   0.00000000000000E+00   0.00000000000000E+00
      1.41005544658212E-12  -1.41005544658212E-12   0.00000000000000E+00   7.03095915160981E-15
      1.45000000000000E-01
      1.36963263184058E+00   1.36963263184058E+00   0.00000000000000E+00   0.00000000000000E+00   8.93518828786452E-06
      0.00000000000000E+00   8.93518828786452E-06   1.45743883227180E-15   0.00000000000000E+00   0.00000000000000E+00
      0.00000000000000E+00   0.00000000000000E+00  -8.93539094798028E-06   0.00000000000000E+00  -8.93539094798028E-06
      1.27515872980661E-15   2.11450000000000E+00   2.11450000000000E+00   0.00000000000000E+00   0.00000000000000E+00
      8.26652279764995E-12  -8.26652279764995E-12   0.00000000000000E+00   7.03218888721580E-15
      1.50000000000000E-01
      1.36963263184058E+00   1.36963263184058E+00   0.00000000000000E+00   0.00000000000000E+00   8.93263520710925E-06
      0.00000000000000E+00   8.93263520710925E-06   1.45750786856600E-15   0.00000000000000E+00   0.00000000000000E+00
      0.00000000000000E+00   0.00000000000000E+00  -8.93262797060006E-06   0.00000000000000E+00  -8.93262797060006E-06
      1.27515736029990E-15   2.11500000000000E+00   2.11500000000000E+00   0.00000000000000E+00   0.00000000000000E+00
      6.44061178236940E-12  -6.44061178236940E-12   0.00000000000000E+00   7.03471819615192E-15
      1.55000000000000E-01
      1.36963263184058E+00   1.36963263184058E+00   0.00000000000000E+00   0.00000000000000E+00   8.93044646663861E-06
      0.00000000000000E+00   8.93044646663861E-06   1.45758524113462E-15   0.00000000000000E+00   0.00000000000000E+00
      0.00000000000000E+00   0.00000000000000E+00  -8.93049387219196E-06   0.00000000000000E+00  -8.93049387219196E-06
      1.27515608913339E-15   2.11550000000000E+00   2.11550000000000E+00   0.00000000000000E+00   0.00000000000000E+00
      5.85727322466715E-12  -5.85727322466715E-12   0.00000000000000E+00   7.03706310196042E-15
      1.60000000000000E-01
      1.36963263184058E+00   1.36963263184058E+00   0.00000000000000E+00   0.00000000000000E+00   8.92799698503238E-06
      0.00000000000000E+00   8.92799698503238E-06   1.45774289321585E-15   0.00000000000000E+00   0.00000000000000E+00
      0.00000000000000E+00   0.00000000000000E+00  -8.92800111785065E-06   0.00000000000000E+00  -8.92800111785065E-06
      1.27515493958635E-15   2.11600000000000E+00   2.11600000000000E+00   0.00000000000000E+00   0.00000000000000E+00
      4.61582911063626E-13  -4.61582911063626E-13   0.00000000000000E+00   7.04013686941265E-15
      1.65000000000000E-01
      1.36963263184058E+00   1.36963263184058E+00   0.00000000000000E+00   0.00000000000000E+00   8.92706721582811E-06
      0.00000000000000E+00   8.92706721582811E-06   1.45777155512419E-15   0.00000000000000E+00   0.00000000000000E+00
      0.00000000000000E+00   0.00000000000000E+00  -8.92721477977570E-06   0.00000000000000E+00  -8.92721477977570E-06
      1.27515380464147E-15   2.11650000000000E+00   2.11650000000000E+00   0.00000000000000E+00   0.00000000000000E+00
      8.88657510781656E-12  -8.88657510781656E-12   0.00000000000000E+00   7.04113151770811E-15
      1.70000000000000E-01
      1.36963263184058E+00   1.36963263184058E+00   0.00000000000000E+00   0.00000000000000E+00   8.92457532427686E-06
      0.00000000000000E+00   8.92457532427686E-06   1.45781708179112E-15   0.00000000000000E+00   0.00000000000000E+00
      0.00000000000000E+00   0.00000000000000E+00  -8.92468165317510E-06   0.00000000000000E+00  -8.92468165317510E-06
      1.27515237711098E-15   2.11700000000000E+00   2.11700000000000E+00   0.00000000000000E+00   0.00000000000000E+00
      8.16492544715239E-12  -8.16492544715239E-12   0.00000000000000E+00   7.04349255068572E-15
      1.75000000000000E-01
      1.36963263184058E+00   1.36963263184058E+00   0.00000000000000E+00   0.00000000000000E+00   8.92129362441694E-06
      0.00000000000000E+00   8.92129362441694E-06   1.45792482215905E-15   0.00000000000000E+00   0.00000000000000E+00
      0.00000000000000E+00   0.00000000000000E+00  -8.92133631770240E-06   0.00000000000000E+00  -8.92133631770240E-06
      1.27515097186350E-15   2.11750000000000E+00   2.11750000000000E+00   0.00000000000000E+00   0.00000000000000E+00
      9.12756167857702E-13  -9.12756167857702E-13   0.00000000000000E+00   7.04683589116191E-15
      1.80000000000000E-01
      1.36963263184058E+00   1.36963263184058E+00   0.00000000000000E+00   0.00000000000000E+00   8.91956418207366E-06
      0.00000000000000E+00   8.91956418207366E-06   1.45805135102703E-15   0.00000000000000E+00   0.00000000000000E+00
      0.00000000000000E+00   0.00000000000000E+00  -8.91956341011889E-06   0.00000000000000E+00  -8.91956341011889E-06
      1.27514987848851E-15   2.11800000000000E+00   2.11800000000000E+00   0.00000000000000E+00   0.00000000000000E+00
      4.81744469722095E-14  -4.81744469722095E-14   0.00000000000000E+00   7.04923140816914E-15
      1.85000000000000E-01
      1.36963263184058E+00   1.36963263184058E+00   0.00000000000000E+00   0.00000000000000E+00   8.91848287506618E-06
      0.00000000000000E+00   8.91848287506618E-06   1.45808952508656E-15   0.00000000000000E+00   0.00000000000000E+00
      0.00000000000000E+00   0.00000000000000E+00  -8.91858348301864E-06   0.00000000000000E+00  -8.91858348301864E-06
      1.27514874455080E-15   2.11850000000000E+00   2.11850000000000E+00   0.00000000000000E+00   0.00000000000000E+00
      7.32368465946668E-12  -7.32368465946668E-12   0.00000000000000E+00   7.05039927856075E-15
      1.90000000000000E-01
      1.36963263184058E+00   1.36963263184058E+00   0.00000000000000E+00   0.00000000000000E+00   8.91718768583127E-06
      0.00000000000000E+00   8.91718768583127E-06   1.45810480189210E-15   0.00000000000000E+00   0.00000000000000E+00
      0.00000000000000E+00   0.00000000000000E+00  -8.91754434495092E-06   0.00000000000000E+00  -8.91754434495092E-06
      1.27514751795334E-15   2.11900000000000E+00   2.11900000000000E+00   0.00000000000000E+00   0.00000000000000E+00
      1.48607029936180E-11  -1.48607029936180E-11   0.00000000000000E+00   7.05152295755070E-15
      1.95000000000000E-01
      1.36963263184058E+00   1.36963263184058E+00   0.00000000000000E+00   0.00000000000000E+00   8.91377502430454E-06
      0.00000000000000E+00   8.91377502430454E-06   1.45814401176103E-15   0.00000000000000E+00   0.00000000000000E+00
      0.00000000000000E+00   0.00000000000000E+00  -8.91391879620043E-06   0.00000000000000E+00  -8.91391879620043E-06
      1.27514588439144E-15   2.11950000000000E+00   2.11950000000000E+00   0.00000000000000E+00   0.00000000000000E+00
      9.75762872578959E-12  -9.75762872578959E-12   0.00000000000000E+00   7.05453677712681E-15
      2.00000000000000E-01
      1.36963263184058E+00   1.36963263184058E+00   0.00000000000000E+00   0.00000000000000E+00   8.91056032618280E-06
      0.00000000000000E+00   8.91056032618280E-06   1.45826002273381E-15   0.00000000000000E+00   0.00000000000000E+00
      0.00000000000000E+00   0.00000000000000E+00  -8.91063230140522E-06   0.00000000000000E+00  -8.91063230140522E-06
      1.27514447642295E-15   2.12000000000000E+00   2.12000000000000E+00   0.00000000000000E+00   0.00000000000000E+00
      2.07411691292799E-12  -2.07411691292799E-12   0.00000000000000E+00   7.05794525680138E-15
      2.05000000000000E-01
      1.36963263184058E+00   1.36963263184058E+00   0.00000000000000E+00   0.00000000000000E+00   8.90970842968953E-06
      0.00000000000000E+00   8.90970842968953E-06   1.45827626195640E-15   0.00000000000000E+00   0.00000000000000E+00
      0.00000000000000E+00   0.00000000000000E+00  -8.90989389326850E-06   0.00000000000000E+00  -8.90989389326850E-06
      1.27514331862169E-15   2.12050000000000E+00   2.12050000000000E+00   0.00000000000000E+00   0.00000000000000E+00
      1.14907444084627E-11  -1.14907444084627E-11   0.00000000000000E+00   7.05879021955641E-15
      2.10000000000000E-01
      1.36963263184058E+00   1.36963263184058E+00   0.00000000000000E+00   0.00000000000000E+00   8.90726886423026E-06
      0.00000000000000E+00   8.90726886423026E-06   1.45829945973851E-15   0.00000000000000E+00   0.00000000000000E+00
      0.00000000000000E+00   0.00000000000000E+00  -8.90725287180696E-06   0.00000000000000E+00  -8.90725287180696E-06
      1.27514186007969E-15   2.12100000000000E+00   2.12100000000000E+00   0.00000000000000E+00   0.00000000000000E+00
      1.24131315551109E-11  -1.24131315551109E-11   0.00000000000000E+00   7.06090230978301E-15
      2.15000000000000E-01
      1.36963263184058E+00   1.36963263184058E+00   0.00000000000000E+00   0.00000000000000E+00   8.90568605566042E-06
      0.00000000000000E+00   8.90568605566042E-06   1.45831321387312E-15   0.00000000000000E+00   0.00000000000000E+00
      0.00000000000000E+00   0.00000000000000E+00  -8.90588482564472E-06   0.00000000000000E+00  -8.90588482564472E-06
      1.27514055099025E-15   2.12150000000000E+00   2.12150000000000E+00   0.00000000000000E+00   0.00000000000000E+00
      1.76135138552198E-11  -1.76135138552198E-11   0.00000000000000E+00   7.06237428420752E-15
      2.20000000000000E-01
      1.36963263184058E+00   1.36963263184058E+00   0.00000000000000E+00   0.00000000000000E+00   8.90257038547509E-06
      0.00000000000000E+00   8.90257038547509E-06   1.45835265757225E-15   0.00000000000000E+00   0.00000000000000E+00
      0.00000000000000E+00   0.00000000000000E+00  -8.90295528723928E-06   0.00000000000000E+00  -8.90295528723928E-06
      1.27513902215440E-15   2.12200000000000E+00   2.12200000000000E+00   0.00000000000000E+00   0.00000000000000E+00
      1.46606600882540E-11  -1.46606600882540E-11   0.00000000000000E+00   7.06506752651865E-15
      2.25000000000000E-01
      1.36963263184058E+00   1.36963263184058E+00   0.00000000000000E+00   0.00000000000000E+00   8.89959161871189E-06
      0.00000000000000E+00   8.89959161871189E-06   1.45838293805838E-15   0.00000000000000E+00   0.00000000000000E+00
      0.00000000000000E+00   0.00000000000000E+00  -8.89974343633378E-06   0.00000000000000E+00  -8.89974343633378E-06
      1.27513744961546E-15   2.12250000000000E+00   2.12250000000000E+00   0.00000000000000E+00   0.00000000000000E+00
      1.18857117547210E-11  -1.18857117547210E-11   0.00000000000000E+00   7.06773234753998E-15
      2.30000000000000E-01
      1.36963263184058E+00   1.36963263184058E+00   0.00000000000000E+00   0.00000000000000E+00   8.89855541662268E-06
      0.00000000000000E+00   8.89855541662268E-06   1.45838945356100E-15   0.00000000000000E+00   0.00000000000000E+00
      0.00000000000000E+00   0.00000000000000E+00  -8.89877987533915E-06   0.00000000000000E+00  -8.89877987533915E-06
      1.27513623550642E-15   2.12300000000000E+00   2.12300000000000E+00   0.00000000000000E+00   0.00000000000000E+00
      2.05531694436122E-11  -2.05531694436122E-11   0.00000000000000E+00   7.06868503675978E-15
      2.35000000000000E-01
      1.36963263184058E+00   1.36963263184058E+00   0.00000000000000E+00   0.00000000000000E+00   8.89550310691969E-06
      0.00000000000000E+00   8.89550310691969E-06   1.45841810978731E-15   0.00000000000000E+00   0.00000000000000E+00
      0.00000000000000E+00   0.00000000000000E+00  -8.89581773521067E-06   0.00000000000000E+00  -8.89581773521067E-06
      1.27513466938359E-15   2.12350000000000E+00   2.12350000000000E+00   0.00000000000000E+00   0.00000000000000E+00
      1.79584218990949E-11  -1.79584218990949E-11   0.00000000000000E+00   7.07132315311240E-15
      2.40000000000000E-01
      1.36963263184058E+00   1.36963263184058E+00   0.00000000000000E+00   0.00000000000000E+00   8.89092524571077E-06
      0.00000000000000E+00   8.89092524571077E-06   1.45856521347388E-15   0.00000000000000E+00   0.00000000000000E+00