DF-ISE text

Info {
  version   = 1.0
  type      = xyplot
  datasets  = [
    "time"
    "source OuterVoltage" "source InnerVoltage" "source QuasiFermiPotential" "source DisplacementCurrent" "source eCurrent"
    "source hCurrent" "source TotalCurrent" "source Charge" "drain OuterVoltage" "drain InnerVoltage"
    "drain QuasiFermiPotential" "drain DisplacementCurrent" "drain eCurrent" "drain hCurrent" "drain TotalCurrent"
    "drain Charge" "gate OuterVoltage" "gate InnerVoltage" "gate QuasiFermiPotential" "gate DisplacementCurrent"
    "gate eCurrent" "gate hCurrent" "gate TotalCurrent" "gate Charge" ]
  functions = [
    Time
    OuterVoltage InnerVoltage QuasiFermiPotential DisplacementCurrent eCurrent
    hCurrent TotalCurrent Charge OuterVoltage InnerVoltage
    QuasiFermiPotential DisplacementCurrent eCurrent hCurrent TotalCurrent
    Charge OuterVoltage InnerVoltage QuasiFermiPotential DisplacementCurrent
    eCurrent hCurrent TotalCurrent Charge ]
}

Data {
      0.00000000000000E+00
      1.36963263184058E+00   1.36963263184058E+00   0.00000000000000E+00   0.00000000000000E+00   1.30037711970508E-05
      0.00000000000000E+00   1.30037711970508E-05   2.23029290712409E-15   0.00000000000000E+00   0.00000000000000E+00
      0.00000000000000E+00   0.00000000000000E+00  -1.30038056398149E-05   0.00000000000000E+00  -1.30038056398149E-05
      1.36574278754777E-15   1.50000000000000E+00   1.50000000000000E+00   0.00000000000000E+00   0.00000000000000E+00
     -3.59075399423026E-14   3.59075399423026E-14   0.00000000000000E+00   4.28345937847394E-15
      0.00000000000000E+00
      1.36963263184058E+00   1.36963263184058E+00   0.00000000000000E+00   0.00000000000000E+00   1.30041662404420E-05
      0.00000000000000E+00   1.30041662404420E-05   2.23038229133751E-15   0.00000000000000E+00   0.00000000000000E+00
      0.00000000000000E+00   0.00000000000000E+00  -1.30041838422209E-05   0.00000000000000E+00  -1.30041838422209E-05
      1.36574279325498E-15   1.50000000000000E+00   1.50000000000000E+00   0.00000000000000E+00   0.00000000000000E+00
     -7.93503736967137E-15   7.93503736967137E-15   0.00000000000000E+00   4.28345754611250E-15
      1.00000000000000E-03
      1.36963263184058E+00   1.36963263184058E+00   0.00000000000000E+00   0.00000000000000E+00   1.30037924801973E-05
      0.00000000000000E+00   1.30037924801973E-05   2.23035015609478E-15   0.00000000000000E+00   0.00000000000000E+00
      0.00000000000000E+00   0.00000000000000E+00  -1.30037905166342E-05   0.00000000000000E+00  -1.30037905166342E-05
      1.36574262945719E-15   1.50005000000000E+00   1.50005000000000E+00   0.00000000000000E+00   0.00000000000000E+00
      1.57432371531338E-13  -1.57432371531338E-13   0.00000000000000E+00   4.28364961392080E-15
      2.86666666666667E-03
      1.36963263184058E+00   1.36963263184058E+00   0.00000000000000E+00   0.00000000000000E+00   1.30032389029721E-05
      0.00000000000000E+00   1.30032389029721E-05   2.23030776780270E-15   0.00000000000000E+00   0.00000000000000E+00
      0.00000000000000E+00   0.00000000000000E+00  -1.30031717443252E-05   0.00000000000000E+00  -1.30031717443252E-05
      1.36574232255814E-15   1.50014333333333E+00   1.50014333333333E+00   0.00000000000000E+00   0.00000000000000E+00
      4.22867614651514E-13  -4.22867614651514E-13   0.00000000000000E+00   4.28401533427791E-15
      6.57511111111111E-03
      1.36963263184058E+00   1.36963263184058E+00   0.00000000000000E+00   0.00000000000000E+00   1.30024847214101E-05
      0.00000000000000E+00   1.30024847214101E-05   2.23038841052790E-15   0.00000000000000E+00   0.00000000000000E+00
      0.00000000000000E+00   0.00000000000000E+00  -1.30024921505318E-05   0.00000000000000E+00  -1.30024921505318E-05
      1.36574169130727E-15   1.50032875555556E+00   1.50032875555556E+00   0.00000000000000E+00   0.00000000000000E+00
      2.56010202910711E-13  -2.56010202910711E-13   0.00000000000000E+00   4.28485363584771E-15
      1.38436622222222E-02
      1.36963263184058E+00   1.36963263184058E+00   0.00000000000000E+00   0.00000000000000E+00   1.30011488249638E-05
      0.00000000000000E+00   1.30011488249638E-05   2.23054455769867E-15   0.00000000000000E+00   0.00000000000000E+00
      0.00000000000000E+00   0.00000000000000E+00  -1.30011458568737E-05   0.00000000000000E+00  -1.30011458568737E-05
      1.36574045399120E-15   1.50069218311111E+00   1.50069218311111E+00   0.00000000000000E+00   0.00000000000000E+00
     -7.15553896554929E-14   7.15553896554929E-14   0.00000000000000E+00   4.28649695555195E-15
      2.83807644444444E-02
      1.36963263184058E+00   1.36963263184058E+00   0.00000000000000E+00   0.00000000000000E+00   1.30009100979768E-05
      0.00000000000000E+00   1.30009100979768E-05   2.23141727142345E-15   0.00000000000000E+00   0.00000000000000E+00
      0.00000000000000E+00   0.00000000000000E+00  -1.30008867117109E-05   0.00000000000000E+00  -1.30008867117109E-05
      1.36573803953226E-15   1.50141903822222E+00   1.50141903822222E+00   0.00000000000000E+00   0.00000000000000E+00
      1.24391169005604E-14  -1.24391169005604E-14   0.00000000000000E+00   4.28968542253534E-15
      5.26092681481481E-02
      1.36963263184058E+00   1.36963263184058E+00   0.00000000000000E+00   0.00000000000000E+00   1.30016888194983E-05
      0.00000000000000E+00   1.30016888194983E-05   2.23316204365374E-15   0.00000000000000E+00   0.00000000000000E+00
      0.00000000000000E+00   0.00000000000000E+00  -1.30017170662207E-05   0.00000000000000E+00  -1.30017170662207E-05
      1.36573402364667E-15   1.50263046340741E+00   1.50263046340741E+00   0.00000000000000E+00   0.00000000000000E+00
      1.71132166370450E-14  -1.71132166370450E-14   0.00000000000000E+00   4.29502992836755E-15
      9.58975280987654E-02
      1.36963263184058E+00   1.36963263184058E+00   0.00000000000000E+00   0.00000000000000E+00   1.30031285826881E-05
      0.00000000000000E+00   1.30031285826881E-05   2.23628634671064E-15   0.00000000000000E+00   0.00000000000000E+00
      0.00000000000000E+00   0.00000000000000E+00  -1.30031455386501E-05   0.00000000000000E+00  -1.30031455386501E-05
      1.36572684888472E-15   1.50479487640494E+00   1.50479487640494E+00   0.00000000000000E+00   0.00000000000000E+00
      2.47165984948214E-14  -2.47165984948214E-14   0.00000000000000E+00   4.30458368147701E-15
      1.82474048000000E-01
      1.36963263184058E+00   1.36963263184058E+00   0.00000000000000E+00   0.00000000000000E+00   1.30054554653722E-05
      0.00000000000000E+00   1.30054554653722E-05   2.24240455542819E-15   0.00000000000000E+00   0.00000000000000E+00
      0.00000000000000E+00   0.00000000000000E+00  -1.30054521335418E-05   0.00000000000000E+00  -1.30054521335418E-05
      1.36571249308630E-15   1.50912370240000E+00   1.50912370240000E+00   0.00000000000000E+00   0.00000000000000E+00
      6.98086871943877E-14  -6.98086871943877E-14   0.00000000000000E+00   4.32370035860965E-15
      3.51009673407737E-01
      1.36963263184058E+00   1.36963263184058E+00   0.00000000000000E+00   0.00000000000000E+00   1.30098844866688E-05
      0.00000000000000E+00   1.30098844866688E-05   2.25430629999691E-15   0.00000000000000E+00   0.00000000000000E+00
      0.00000000000000E+00   0.00000000000000E+00  -1.30098735992799E-05   0.00000000000000E+00  -1.30098735992799E-05
      1.36568454372537E-15   1.51755048367039E+00   1.51755048367039E+00   0.00000000000000E+00   0.00000000000000E+00
      1.92900776591603E-13  -1.92900776591603E-13   0.00000000000000E+00   4.36097171199299E-15
      6.76845215862694E-01
      1.36963263184058E+00   1.36963263184058E+00   0.00000000000000E+00   0.00000000000000E+00   1.30194112501226E-05
      0.00000000000000E+00   1.30194112501226E-05   2.27761354285992E-15   0.00000000000000E+00   0.00000000000000E+00
      0.00000000000000E+00   0.00000000000000E+00  -1.30194346543202E-05   0.00000000000000E+00  -1.30194346543202E-05
      1.36563050021785E-15   1.53384226079313E+00   1.53384226079313E+00   0.00000000000000E+00   0.00000000000000E+00
      2.78983879328341E-13  -2.78983879328341E-13   0.00000000000000E+00   4.43328416356544E-15
      1.00000000000000E+00
      1.36963263184058E+00   1.36963263184058E+00   0.00000000000000E+00   0.00000000000000E+00   1.30303347300835E-05
      0.00000000000000E+00   1.30303347300835E-05   2.30116908833973E-15   0.00000000000000E+00   0.00000000000000E+00
      0.00000000000000E+00   0.00000000000000E+00  -1.30303734035450E-05   0.00000000000000E+00  -1.30303734035450E-05
      1.36557689150041E-15   1.55000000000000E+00   1.55000000000000E+00   0.00000000000000E+00   0.00000000000000E+00
      1.14032637829813E-13  -1.14032637829813E-13   0.00000000000000E+00   4.50531713481245E-15
      0.00000000000000E+00
      1.36963263184058E+00   1.36963263184058E+00   0.00000000000000E+00   0.00000000000000E+00   1.30305367430981E-05
      0.00000000000000E+00   1.30305367430981E-05   2.30122200246845E-15   0.00000000000000E+00   0.00000000000000E+00
      0.00000000000000E+00   0.00000000000000E+00  -1.30305402014322E-05   0.00000000000000E+00  -1.30305402014322E-05
      1.36557689294233E-15   1.55000000000000E+00   1.55000000000000E+00   0.00000000000000E+00   0.00000000000000E+00
      8.85912944464395E-14  -8.85912944464395E-14   0.00000000000000E+00   4.50532243775227E-15
      1.00000000000000E-03
      1.36963263184058E+00   1.36963263184058E+00   0.00000000000000E+00   0.00000000000000E+00   1.30306625004819E-05
      0.00000000000000E+00   1.30306625004819E-05   2.30131566057873E-15   0.00000000000000E+00   0.00000000000000E+00
      0.00000000000000E+00   0.00000000000000E+00  -1.30306784334315E-05   0.00000000000000E+00  -1.30306784334315E-05
      1.36557672726009E-15   1.55005000000000E+00   1.55005000000000E+00   0.00000000000000E+00   0.00000000000000E+00
      6.62654930034057E-14  -6.62654930034057E-14   0.00000000000000E+00   4.50554983465893E-15
      2.96000000000000E-03
      1.36963263184058E+00   1.36963263184058E+00   0.00000000000000E+00   0.00000000000000E+00   1.30308331701328E-05
      0.00000000000000E+00   1.30308331701328E-05   2.30147450105554E-15   0.00000000000000E+00   0.00000000000000E+00
      0.00000000000000E+00   0.00000000000000E+00  -1.30308339902035E-05   0.00000000000000E+00  -1.30308339902035E-05
      1.36557640147724E-15   1.55014800000000E+00   1.55014800000000E+00   0.00000000000000E+00   0.00000000000000E+00
      2.50157761819536E-14  -2.50157761819536E-14   0.00000000000000E+00   4.50599445657688E-15
      6.85386666666667E-03
      1.36963263184058E+00   1.36963263184058E+00   0.00000000000000E+00   0.00000000000000E+00   1.30314182333279E-05
      0.00000000000000E+00   1.30314182333279E-05   2.30186690019043E-15   0.00000000000000E+00   0.00000000000000E+00
      0.00000000000000E+00   0.00000000000000E+00  -1.30314183945663E-05   0.00000000000000E+00  -1.30314183945663E-05
      1.36557575915866E-15   1.55034269333333E+00   1.55034269333333E+00   0.00000000000000E+00   0.00000000000000E+00
     -2.88699467273056E-14   2.88699467273056E-14   0.00000000000000E+00   4.50687527187364E-15
      1.42781724444444E-02
      1.36963263184058E+00   1.36963263184058E+00   0.00000000000000E+00   0.00000000000000E+00   1.30325375895033E-05
      0.00000000000000E+00   1.30325375895033E-05   2.30261442971002E-15   0.00000000000000E+00   0.00000000000000E+00
      0.00000000000000E+00   0.00000000000000E+00  -1.30325405014383E-05   0.00000000000000E+00  -1.30325405014383E-05
      1.36557453438835E-15   1.55071390862222E+00   1.55071390862222E+00   0.00000000000000E+00   0.00000000000000E+00
     -1.32407339778290E-13   1.32407339778290E-13   0.00000000000000E+00   4.50855482878468E-15
      2.90277932562963E-02
      1.36963263184058E+00   1.36963263184058E+00   0.00000000000000E+00   0.00000000000000E+00   1.30347219108843E-05
      0.00000000000000E+00   1.30347219108843E-05   2.30409094132396E-15   0.00000000000000E+00   0.00000000000000E+00
      0.00000000000000E+00   0.00000000000000E+00  -1.30347546975643E-05   0.00000000000000E+00  -1.30347546975643E-05
      1.36557210006245E-15   1.55145138966281E+00   1.55145138966281E+00   0.00000000000000E+00   0.00000000000000E+00
     -3.52617556655283E-13   3.52617556655283E-13   0.00000000000000E+00   4.51189400357991E-15
      5.83303732691753E-02
      1.36963263184058E+00   1.36963263184058E+00   0.00000000000000E+00   0.00000000000000E+00   1.30392872225020E-05
      0.00000000000000E+00   1.30392872225020E-05   2.30708136058710E-15   0.00000000000000E+00   0.00000000000000E+00
      0.00000000000000E+00   0.00000000000000E+00  -1.30392345104503E-05   0.00000000000000E+00  -1.30392345104503E-05
      1.36556727454384E-15   1.55291651866346E+00   1.55291651866346E+00   0.00000000000000E+00   0.00000000000000E+00
     -6.15160201749998E-13   6.15160201749998E-13   0.00000000000000E+00   4.51850312821447E-15
      8.72422522152159E-02
      1.36963263184058E+00   1.36963263184058E+00   0.00000000000000E+00   0.00000000000000E+00   1.30438631169553E-05
      0.00000000000000E+00   1.30438631169553E-05   2.31005925490320E-15   0.00000000000000E+00   0.00000000000000E+00
      0.00000000000000E+00   0.00000000000000E+00  -1.30438085088020E-05   0.00000000000000E+00  -1.30438085088020E-05
      1.36556251682697E-15   1.55436211261076E+00   1.55436211261076E+00   0.00000000000000E+00   0.00000000000000E+00
     -8.13146007210324E-13   8.13146007210324E-13   0.00000000000000E+00   4.52501691266162E-15
      1.15575893582336E-01
      1.36963263184058E+00   1.36963263184058E+00   0.00000000000000E+00   0.00000000000000E+00   1.30870983088454E-05
      0.00000000000000E+00   1.30870983088454E-05   2.31321000594831E-15   0.00000000000000E+00   0.00000000000000E+00
      0.00000000000000E+00   0.00000000000000E+00  -1.30870839984676E-05   0.00000000000000E+00  -1.30870839984676E-05
      1.36555777352783E-15   1.55577879467912E+00   1.55577879467912E+00   0.00000000000000E+00   0.00000000000000E+00
     -3.25673195234138E-13   3.25673195234138E-13   0.00000000000000E+00   4.53155726941792E-15
      1.68087575582731E-01
      1.36963263184058E+00   1.36963263184058E+00   0.00000000000000E+00   0.00000000000000E+00   1.31678139421571E-05
      0.00000000000000E+00   1.31678139421571E-05   2.31908716417220E-15   0.00000000000000E+00   0.00000000000000E+00
      0.00000000000000E+00   0.00000000000000E+00  -1.31678097953313E-05   0.00000000000000E+00  -1.31678097953313E-05
      1.36554897985544E-15   1.55840437877914E+00   1.55840437877914E+00   0.00000000000000E+00   0.00000000000000E+00
      5.17543450546730E-13  -5.17543450546730E-13   0.00000000000000E+00   4.54369127997152E-15
      2.71710628063511E-01
      1.36963263184058E+00   1.36963263184058E+00   0.00000000000000E+00   0.00000000000000E+00   1.33290010619438E-05
      0.00000000000000E+00   1.33290010619438E-05   2.33090508227352E-15   0.00000000000000E+00   0.00000000000000E+00
      0.00000000000000E+00   0.00000000000000E+00  -1.33290465404866E-05   0.00000000000000E+00  -1.33290465404866E-05
      1.36553157553495E-15   1.56358553140318E+00   1.56358553140318E+00   0.00000000000000E+00   0.00000000000000E+00
      9.04008615801558E-13  -9.04008615801558E-13   0.00000000000000E+00   4.56784509639025E-15
      4.74811810925841E-01
      1.36963263184058E+00   1.36963263184058E+00   0.00000000000000E+00   0.00000000000000E+00   1.36514728519320E-05
      0.00000000000000E+00   1.36514728519320E-05   2.35450333181641E-15   0.00000000000000E+00   0.00000000000000E+00
      0.00000000000000E+00   0.00000000000000E+00  -1.36514886505063E-05   0.00000000000000E+00  -1.36514886505063E-05
      1.36549740510438E-15   1.57374059054629E+00   1.57374059054629E+00   0.00000000000000E+00   0.00000000000000E+00
      4.96927890844134E-13  -4.96927890844134E-13   0.00000000000000E+00   4.61539699415774E-15
      8.70182113564508E-01
      1.36963263184058E+00   1.36963263184058E+00   0.00000000000000E+00   0.00000000000000E+00   1.41504457049952E-05
      0.00000000000000E+00   1.41504457049952E-05   2.45396157815123E-15   0.00000000000000E+00   0.00000000000000E+00
      0.00000000000000E+00   0.00000000000000E+00  -1.41504754133770E-05   0.00000000000000E+00  -1.41504754133770E-05
      1.36543153498713E-15   1.59350910567823E+00   1.59350910567823E+00   0.00000000000000E+00   0.00000000000000E+00
     -2.11024325945737E-16   2.11024325945737E-16   0.00000000000000E+00   4.70710941004244E-15
      9.02636585173381E-01
      1.36963263184058E+00   1.36963263184058E+00   0.00000000000000E+00   0.00000000000000E+00   1.41363944572152E-05
      0.00000000000000E+00   1.41363944572152E-05   2.48240240683941E-15   0.00000000000000E+00   0.00000000000000E+00
      0.00000000000000E+00   0.00000000000000E+00  -1.41366007523578E-05   0.00000000000000E+00  -1.41366007523578E-05
      1.36542645152408E-15   1.59513182925867E+00   1.59513182925867E+00   0.00000000000000E+00   0.00000000000000E+00
     -3.21178565817186E-17   3.21178565817186E-17   0.00000000000000E+00   4.71433167402831E-15
      9.35091056782254E-01
      1.36963263184058E+00   1.36963263184058E+00   0.00000000000000E+00   0.00000000000000E+00   1.41034661559223E-05
      0.00000000000000E+00   1.41034661559223E-05   2.51880982299577E-15   0.00000000000000E+00   0.00000000000000E+00
      0.00000000000000E+00   0.00000000000000E+00  -1.41034211715264E-05   0.00000000000000E+00  -1.41034211715264E-05
      1.36542150312189E-15   1.59675455283911E+00   1.59675455283911E+00   0.00000000000000E+00   0.00000000000000E+00
     -6.08181620169945E-17   6.08181620169945E-17   0.00000000000000E+00   4.72145055075054E-15
      9.90480021661397E-01
      1.36963263184058E+00   1.36963263184058E+00   0.00000000000000E+00   0.00000000000000E+00   1.40402156435987E-05
      0.00000000000000E+00   1.40402156435987E-05   2.58499359917289E-15   0.00000000000000E+00   0.00000000000000E+00
      0.00000000000000E+00   0.00000000000000E+00  -1.40402420069779E-05   0.00000000000000E+00  -1.40402420069779E-05
      1.36541311687327E-15   1.59952400108307E+00   1.59952400108307E+00   0.00000000000000E+00   0.00000000000000E+00
     -1.03373568175773E-16   1.03373568175773E-16   0.00000000000000E+00   4.73356207393921E-15
      1.00000000000000E+00
      1.36963263184058E+00   1.36963263184058E+00   0.00000000000000E+00   0.00000000000000E+00   1.40252188755800E-05
      0.00000000000000E+00   1.40252188755800E-05   2.59864350028240E-15   0.00000000000000E+00   0.00000000000000E+00
      0.00000000000000E+00   0.00000000000000E+00  -1.40251613496523E-05   0.00000000000000E+00  -1.40251613496523E-05
      1.36541171794780E-15   1.60000000000000E+00   1.60000000000000E+00   0.00000000000000E+00   0.00000000000000E+00
     -9.21490658679685E-17   9.21490658679685E-17   0.00000000000000E+00   4.73562035457685E-15
      0.00000000000000E+00
      1.36963263184058E+00   1.36963263184058E+00   0.00000000000000E+00   0.00000000000000E+00   1.40179367854745E-05
      0.00000000000000E+00   1.40179367854745E-05   2.60231619080424E-15   0.00000000000000E+00   0.00000000000000E+00
      0.00000000000000E+00   0.00000000000000E+00  -1.40178617486773E-05   0.00000000000000E+00  -1.40178617486773E-05
      1.36541179411774E-15   1.60000000000000E+00   1.60000000000000E+00   0.00000000000000E+00   0.00000000000000E+00
     -5.34682260979945E-17   5.34682260979945E-17   0.00000000000000E+00   4.73557941323310E-15
      1.00000000000000E-03
      1.36963263184058E+00   1.36963263184058E+00   0.00000000000000E+00   0.00000000000000E+00   1.40132756927939E-05
      0.00000000000000E+00   1.40132756927939E-05   2.60539817151065E-15   0.00000000000000E+00   0.00000000000000E+00
      0.00000000000000E+00   0.00000000000000E+00  -1.40132673429331E-05   0.00000000000000E+00  -1.40132673429331E-05
      1.36541168094107E-15   1.60005000000000E+00   1.60005000000000E+00   0.00000000000000E+00   0.00000000000000E+00
     -2.93168899219082E-17   2.93168899219082E-17   0.00000000000000E+00   4.73577832540856E-15
      2.76000000000000E-03
      1.36963263184058E+00   1.36963263184058E+00   0.00000000000000E+00   0.00000000000000E+00   1.39989115615625E-05
      0.00000000000000E+00   1.39989115615625E-05   2.61444973919005E-15   0.00000000000000E+00   0.00000000000000E+00
      0.00000000000000E+00   0.00000000000000E+00  -1.39989153442589E-05   0.00000000000000E+00  -1.39989153442589E-05
      1.36541155804328E-15   1.60013800000000E+00   1.60013800000000E+00   0.00000000000000E+00   0.00000000000000E+00
      9.67572212939879E-17  -9.67572212939879E-17   0.00000000000000E+00   4.73609348630490E-15
      6.04533333333333E-03
      1.36963263184058E+00   1.36963263184058E+00   0.00000000000000E+00   0.00000000000000E+00   1.39710884222636E-05
      0.00000000000000E+00   1.39710884222636E-05   2.63210758016846E-15   0.00000000000000E+00   0.00000000000000E+00
      0.00000000000000E+00   0.00000000000000E+00  -1.39711102130422E-05   0.00000000000000E+00  -1.39711102130422E-05
      1.36541134413523E-15   1.60030226666667E+00   1.60030226666667E+00   0.00000000000000E+00   0.00000000000000E+00
      8.53708113635283E-17  -8.53708113635283E-17   0.00000000000000E+00   4.73667528293642E-15
      1.18713244444444E-02
      1.36963263184058E+00   1.36963263184058E+00   0.00000000000000E+00   0.00000000000000E+00   1.39217165189647E-05
      0.00000000000000E+00   1.39217165189647E-05   2.66376965230349E-15   0.00000000000000E+00   0.00000000000000E+00
      0.00000000000000E+00   0.00000000000000E+00  -1.39217287622327E-05   0.00000000000000E+00  -1.39217287622327E-05
      1.36541096756350E-15   1.60059356622222E+00   1.60059356622222E+00   0.00000000000000E+00   0.00000000000000E+00
      2.28302008755765E-17  -2.28302008755765E-17   0.00000000000000E+00   4.73770368283091E-15
      2.32902670222222E-02
      1.36963263184058E+00   1.36963263184058E+00   0.00000000000000E+00   0.00000000000000E+00   1.38253710109105E-05
      0.00000000000000E+00   1.38253710109105E-05   2.72650612233287E-15   0.00000000000000E+00   0.00000000000000E+00
      0.00000000000000E+00   0.00000000000000E+00  -1.38253835743450E-05   0.00000000000000E+00  -1.38253835743450E-05
      1.36541022408003E-15   1.60116451335111E+00   1.60116451335111E+00   0.00000000000000E+00   0.00000000000000E+00
     -2.02390460556661E-16   2.02390460556661E-16   0.00000000000000E+00   4.73971176850976E-15
      4.53668893392593E-02
      1.36963263184058E+00   1.36963263184058E+00   0.00000000000000E+00   0.00000000000000E+00   1.36408451822380E-05
      0.00000000000000E+00   1.36408451822380E-05   2.84975231248148E-15   0.00000000000000E+00   0.00000000000000E+00
      0.00000000000000E+00   0.00000000000000E+00  -1.36408587876339E-05   0.00000000000000E+00  -1.36408587876339E-05
      1.36540873831972E-15   1.60226834446696E+00   1.60226834446696E+00   0.00000000000000E+00   0.00000000000000E+00
     -1.02495075228428E-15   1.02495075228428E-15   0.00000000000000E+00   4.74356734574364E-15
      5.62580230156642E-02
      1.36963263184058E+00   1.36963263184058E+00   0.00000000000000E+00   0.00000000000000E+00   1.35826077116906E-05
      0.00000000000000E+00   1.35826077116906E-05   2.90965672088360E-15   0.00000000000000E+00   0.00000000000000E+00
      0.00000000000000E+00   0.00000000000000E+00  -1.35825817011902E-05   0.00000000000000E+00  -1.35825817011902E-05
      1.36540806693128E-15   1.60281290115078E+00   1.60281290115078E+00   0.00000000000000E+00   0.00000000000000E+00
      3.36800098311077E-17  -3.36800098311077E-17   0.00000000000000E+00   4.74565722500198E-15
      7.45551275920245E-02
      1.36963263184058E+00   1.36963263184058E+00   0.00000000000000E+00   0.00000000000000E+00   1.35567677705810E-05
      0.00000000000000E+00   1.35567677705810E-05   2.99969936506051E-15   0.00000000000000E+00   0.00000000000000E+00
      0.00000000000000E+00   0.00000000000000E+00  -1.35568025390621E-05   0.00000000000000E+00  -1.35568025390621E-05
      1.36540679065977E-15   1.60372775637960E+00   1.60372775637960E+00   0.00000000000000E+00   0.00000000000000E+00
      2.27870459645485E-16  -2.27870459645485E-16   0.00000000000000E+00   4.74961350128200E-15
      7.63390952882196E-02
      1.36963263184058E+00   1.36963263184058E+00   0.00000000000000E+00   0.00000000000000E+00   1.36728325890520E-05
      0.00000000000000E+00   1.36728325890520E-05   2.98903166461954E-15   0.00000000000000E+00   0.00000000000000E+00
      0.00000000000000E+00   0.00000000000000E+00  -1.36728879131777E-05   0.00000000000000E+00  -1.36728879131777E-05
      1.36540672130238E-15   1.60381695476441E+00   1.60381695476441E+00   0.00000000000000E+00   0.00000000000000E+00
      1.04845047697257E-16  -1.04845047697257E-16   0.00000000000000E+00   4.75073614048625E-15
      7.86225739393494E-02
      1.36963263184058E+00   1.36963263184058E+00   0.00000000000000E+00   0.00000000000000E+00   1.38312479363792E-05
      0.00000000000000E+00   1.38312479363792E-05   2.97437645798805E-15   0.00000000000000E+00   0.00000000000000E+00
      0.00000000000000E+00   0.00000000000000E+00  -1.38312502218488E-05   0.00000000000000E+00  -1.38312502218488E-05
      1.36540663270219E-15   1.60393112869697E+00   1.60393112869697E+00   0.00000000000000E+00   0.00000000000000E+00
      1.78278903120379E-16  -1.78278903120379E-16   0.00000000000000E+00   4.75220214576161E-15
      8.30981920955637E-02
      1.36963263184058E+00   1.36963263184058E+00   0.00000000000000E+00   0.00000000000000E+00   1.41170031045083E-05
      0.00000000000000E+00   1.41170031045083E-05   2.96044344196339E-15   0.00000000000000E+00   0.00000000000000E+00
      0.00000000000000E+00   0.00000000000000E+00  -1.41170162787064E-05   0.00000000000000E+00  -1.41170162787064E-05
      1.36540667606161E-15   1.60415490960478E+00   1.60415490960478E+00   0.00000000000000E+00   0.00000000000000E+00
      1.93202308911079E-17  -1.93202308911079E-17   0.00000000000000E+00   4.75483481117556E-15
      9.02591811455067E-02
      1.36963263184058E+00   1.36963263184058E+00   0.00000000000000E+00   0.00000000000000E+00   1.42382502571479E-05
      0.00000000000000E+00   1.42382502571479E-05   3.03972486615855E-15   0.00000000000000E+00   0.00000000000000E+00
      0.00000000000000E+00   0.00000000000000E+00  -1.42382667791992E-05   0.00000000000000E+00  -1.42382667791992E-05
      1.36540757175454E-15   1.60451295905728E+00   1.60451295905728E+00   0.00000000000000E+00   0.00000000000000E+00
      2.01391218550958E-18  -2.01391218550958E-18   0.00000000000000E+00   4.75709837714849E-15
      9.74201701954496E-02
      1.36963263184058E+00   1.36963263184058E+00   0.00000000000000E+00   0.00000000000000E+00   1.43989286640103E-05
      0.00000000000000E+00   1.43989286640103E-05   3.11639056675001E-15   0.00000000000000E+00   0.00000000000000E+00
      0.00000000000000E+00   0.00000000000000E+00  -1.43989521366047E-05   0.00000000000000E+00  -1.43989521366047E-05
      1.36540813937697E-15   1.60487100850977E+00   1.60487100850977E+00   0.00000000000000E+00   0.00000000000000E+00
      1.30558177460670E-17  -1.30558177460670E-17   0.00000000000000E+00   4.75953649383714E-15
      1.07636514573368E-01
      1.36963263184058E+00   1.36963263184058E+00   0.00000000000000E+00   0.00000000000000E+00   1.46491311140844E-05
      0.00000000000000E+00   1.46491311140844E-05   3.22510639318675E-15   0.00000000000000E+00   0.00000000000000E+00
      0.00000000000000E+00   0.00000000000000E+00  -1.46491455803119E-05   0.00000000000000E+00  -1.46491455803119E-05
      1.36540702650358E-15   1.60538182572867E+00   1.60538182572867E+00   0.00000000000000E+00   0.00000000000000E+00
      1.22245563785573E-17  -1.22245563785573E-17   0.00000000000000E+00   4.76302891766092E-15
      1.25208626903388E-01
      1.36963263184058E+00   1.36963263184058E+00   0.00000000000000E+00   0.00000000000000E+00   1.51041632621811E-05
      0.00000000000000E+00   1.51041632621811E-05   3.41487067889068E-15   0.00000000000000E+00   0.00000000000000E+00
      0.00000000000000E+00   0.00000000000000E+00  -1.51041542279201E-05   0.00000000000000E+00  -1.51041542279201E-05
      1.36538972412796E-15   1.60626043134517E+00   1.60626043134517E+00   0.00000000000000E+00   0.00000000000000E+00
     -9.62394947073501E-15   9.62394947073501E-15   0.00000000000000E+00   4.76877144772095E-15
      1.41492117662540E-01
      1.36963263184058E+00   1.36963263184058E+00   0.00000000000000E+00   0.00000000000000E+00   1.56143074470684E-05
      0.00000000000000E+00   1.56143074470684E-05   3.59232994058064E-15   0.00000000000000E+00   0.00000000000000E+00
      0.00000000000000E+00   0.00000000000000E+00  -1.56136230811037E-05   0.00000000000000E+00  -1.56136230811037E-05
      1.36534740172358E-15   1.60707460588313E+00   1.60707460588313E+00   0.00000000000000E+00   0.00000000000000E+00
     -2.21364266814400E-14   2.21364266814400E-14   0.00000000000000E+00   4.77366560681716E-15
      1.55930146135655E-01
      1.36963263184058E+00   1.36963263184058E+00   0.00000000000000E+00   0.00000000000000E+00   1.63009245111805E-05
      0.00000000000000E+00   1.63009245111805E-05   3.76075105144625E-15   0.00000000000000E+00   0.00000000000000E+00
      0.00000000000000E+00   0.00000000000000E+00  -1.62981835891179E-05   0.00000000000000E+00  -1.62981835891179E-05
      1.36528628598917E-15   1.60779650730678E+00   1.60779650730678E+00   0.00000000000000E+00   0.00000000000000E+00
     -7.31351278038988E-14   7.31351278038988E-14   0.00000000000000E+00   4.77735601906397E-15
      1.69309385854074E-01
      1.36963263184058E+00   1.36963263184058E+00   0.00000000000000E+00   0.00000000000000E+00   1.68322970097177E-05
      0.00000000000000E+00   1.68322970097177E-05   3.84832316558571E-15   0.00000000000000E+00   0.00000000000000E+00