DF-ISE text

Info {
  version   = 1.0
  type      = xyplot
  datasets  = [
    "time"
    "source OuterVoltage" "source InnerVoltage" "source QuasiFermiPotential" "source DisplacementCurrent" "source eCurrent"
    "source hCurrent" "source TotalCurrent" "source Charge" "drain OuterVoltage" "drain InnerVoltage"
    "drain QuasiFermiPotential" "drain DisplacementCurrent" "drain eCurrent" "drain hCurrent" "drain TotalCurrent"
    "drain Charge" "gate OuterVoltage" "gate InnerVoltage" "gate QuasiFermiPotential" "gate DisplacementCurrent"
    "gate eCurrent" "gate hCurrent" "gate TotalCurrent" "gate Charge" ]
  functions = [
    Time
    OuterVoltage InnerVoltage QuasiFermiPotential DisplacementCurrent eCurrent
    hCurrent TotalCurrent Charge OuterVoltage InnerVoltage
    QuasiFermiPotential DisplacementCurrent eCurrent hCurrent TotalCurrent
    Charge OuterVoltage InnerVoltage QuasiFermiPotential DisplacementCurrent
    eCurrent hCurrent TotalCurrent Charge ]
}

Data {
      0.00000000000000E+00
      1.36963263184058E+00   1.36963263184058E+00   0.00000000000000E+00   0.00000000000000E+00   1.81770825040088E-05
      0.00000000000000E+00   1.81770825040088E-05   3.85209855609400E-15   0.00000000000000E+00   0.00000000000000E+00
      0.00000000000000E+00   0.00000000000000E+00  -1.81696907523567E-05   0.00000000000000E+00  -1.81696907523567E-05
      1.37041658910235E-15   1.36963263184058E+00   1.36963263184058E+00   0.00000000000000E+00   0.00000000000000E+00
     -2.21264492351897E-12   2.21264492351897E-12   0.00000000000000E+00   3.73801994514168E-15
      1.00000000000000E-03
      1.36963263184058E+00   1.36963263184058E+00   0.00000000000000E+00   0.00000000000000E+00   1.81762822690467E-05
      0.00000000000000E+00   1.81762822690467E-05   3.85205079272928E-15   0.00000000000000E+00   0.00000000000000E+00
      0.00000000000000E+00   0.00000000000000E+00  -1.81690866112999E-05   0.00000000000000E+00  -1.81690866112999E-05
      1.37041625169446E-15   1.36976299920874E+00   1.36976299920874E+00   0.00000000000000E+00   0.00000000000000E+00
      1.27232178966618E-12  -1.27232178966618E-12   0.00000000000000E+00   3.73804006485455E-15
      2.93333333333333E-03
      1.36963263184058E+00   1.36963263184058E+00   0.00000000000000E+00   0.00000000000000E+00   1.81619202053408E-05
      0.00000000000000E+00   1.81619202053408E-05   3.85015691837494E-15   0.00000000000000E+00   0.00000000000000E+00
      0.00000000000000E+00   0.00000000000000E+00  -1.81588469963216E-05   0.00000000000000E+00  -1.81588469963216E-05
      1.37041077804694E-15   1.37001504278718E+00   1.37001504278718E+00   0.00000000000000E+00   0.00000000000000E+00
      7.56611335753662E-12  -7.56611335753662E-12   0.00000000000000E+00   3.73816670754802E-15
      6.67111111111111E-03
      1.36963263184058E+00   1.36963263184058E+00   0.00000000000000E+00   0.00000000000000E+00   1.81436952756350E-05
      0.00000000000000E+00   1.81436952756350E-05   3.84729280176244E-15   0.00000000000000E+00   0.00000000000000E+00
      0.00000000000000E+00   0.00000000000000E+00  -1.81400713852463E-05   0.00000000000000E+00  -1.81400713852463E-05
      1.37040221100975E-15   1.37050232703884E+00   1.37050232703884E+00   0.00000000000000E+00   0.00000000000000E+00
      2.01920688883419E-11  -2.01920688883419E-11   0.00000000000000E+00   3.73832841878754E-15
      1.39473185185185E-02
      1.36963263184058E+00   1.36963263184058E+00   0.00000000000000E+00   0.00000000000000E+00   1.81086687368003E-05
      0.00000000000000E+00   1.81086687368003E-05   3.84214606590101E-15   0.00000000000000E+00   0.00000000000000E+00
      0.00000000000000E+00   0.00000000000000E+00  -1.81056152842675E-05   0.00000000000000E+00  -1.81056152842675E-05
      1.37038660217072E-15   1.37145090704872E+00   1.37145090704872E+00   0.00000000000000E+00   0.00000000000000E+00
      4.52370881226987E-11  -4.52370881226987E-11   0.00000000000000E+00   3.73854024105725E-15
      2.75295723456790E-02
      1.36963263184058E+00   1.36963263184058E+00   0.00000000000000E+00   0.00000000000000E+00   1.80520255653360E-05
      0.00000000000000E+00   1.80520255653360E-05   3.83233078242060E-15   0.00000000000000E+00   0.00000000000000E+00
      0.00000000000000E+00   0.00000000000000E+00  -1.80401101852468E-05   0.00000000000000E+00  -1.80401101852468E-05
      1.37035687663450E-15   1.37322158973384E+00   1.37322158973384E+00   0.00000000000000E+00   0.00000000000000E+00
      9.06711926934836E-11  -9.06711926934836E-11   0.00000000000000E+00   3.73903794438376E-15
      4.78124047275720E-02
      1.36963263184058E+00   1.36963263184058E+00   0.00000000000000E+00   0.00000000000000E+00   1.79579041314671E-05
      0.00000000000000E+00   1.79579041314671E-05   3.81845915582553E-15   0.00000000000000E+00   0.00000000000000E+00
      0.00000000000000E+00   0.00000000000000E+00  -1.79584696855485E-05   0.00000000000000E+00  -1.79584696855485E-05
      1.37031395279589E-15   1.37586580921029E+00   1.37586580921029E+00   0.00000000000000E+00   0.00000000000000E+00
      1.61472907519862E-10  -1.61472907519862E-10   0.00000000000000E+00   3.73903788812543E-15
      8.70258806658985E-02
      1.36963263184058E+00   1.36963263184058E+00   0.00000000000000E+00   0.00000000000000E+00   1.77186673363900E-05
      0.00000000000000E+00   1.77186673363900E-05   3.78011515890162E-15   0.00000000000000E+00   0.00000000000000E+00
      0.00000000000000E+00   0.00000000000000E+00  -1.77190059710209E-05   0.00000000000000E+00  -1.77190059710209E-05
      1.37020881794821E-15   1.38097796686475E+00   1.38097796686475E+00   0.00000000000000E+00   0.00000000000000E+00
      1.55275611939225E-10  -1.55275611939225E-10   0.00000000000000E+00   3.76150680292244E-15
      1.26239356604225E-01
      1.36963263184058E+00   1.36963263184058E+00   0.00000000000000E+00   0.00000000000000E+00   1.74140915112741E-05
      0.00000000000000E+00   1.74140915112741E-05   3.72897714425733E-15   0.00000000000000E+00   0.00000000000000E+00
      0.00000000000000E+00   0.00000000000000E+00  -1.74130272944582E-05   0.00000000000000E+00  -1.74130272944582E-05
      1.37009101682023E-15   1.38609012451921E+00   1.38609012451921E+00   0.00000000000000E+00   0.00000000000000E+00
      3.00313842502471E-11  -3.00313842502471E-11   0.00000000000000E+00   3.80246828464625E-15
      1.95255074255680E-01
      1.36963263184058E+00   1.36963263184058E+00   0.00000000000000E+00   0.00000000000000E+00   1.69674875128584E-05
      0.00000000000000E+00   1.69674875128584E-05   3.63177037220716E-15   0.00000000000000E+00   0.00000000000000E+00
      0.00000000000000E+00   0.00000000000000E+00  -1.69669201145970E-05   0.00000000000000E+00  -1.69669201145970E-05
      1.36988701935272E-15   1.39508752199107E+00   1.39508752199107E+00   0.00000000000000E+00   0.00000000000000E+00
     -3.24429850659799E-11   3.24429850659799E-11   0.00000000000000E+00   3.84973475372952E-15
      2.57829324926332E-01
      1.36963263184058E+00   1.36963263184058E+00   0.00000000000000E+00   0.00000000000000E+00   1.66368877344801E-05
      0.00000000000000E+00   1.66368877344801E-05   3.54152226948986E-15   0.00000000000000E+00   0.00000000000000E+00
      0.00000000000000E+00   0.00000000000000E+00  -1.66367192578277E-05   0.00000000000000E+00  -1.66367192578277E-05
      1.36970023056350E-15   1.40324516236555E+00   1.40324516236555E+00   0.00000000000000E+00   0.00000000000000E+00
     -9.17577126843216E-12   9.17577126843216E-12   0.00000000000000E+00   3.88051054456300E-15
      3.79640532898535E-01
      1.36963263184058E+00   1.36963263184058E+00   0.00000000000000E+00   0.00000000000000E+00   1.60848373382425E-05
      0.00000000000000E+00   1.60848373382425E-05   3.36685816577176E-15   0.00000000000000E+00   0.00000000000000E+00
      0.00000000000000E+00   0.00000000000000E+00  -1.60848269056229E-05   0.00000000000000E+00  -1.60848269056229E-05
      1.36931620647939E-15   1.41912536896120E+00   1.41912536896120E+00   0.00000000000000E+00   0.00000000000000E+00
      7.52211670239442E-14  -7.52211670239442E-14   0.00000000000000E+00   3.94581820780794E-15
      6.03773155567388E-01
      1.36963263184058E+00   1.36963263184058E+00   0.00000000000000E+00   0.00000000000000E+00   1.51920677233532E-05
      0.00000000000000E+00   1.51920677233532E-05   3.05275524591787E-15   0.00000000000000E+00   0.00000000000000E+00
      0.00000000000000E+00   0.00000000000000E+00  -1.51920842584818E-05   0.00000000000000E+00  -1.51920842584818E-05
      1.36855794958567E-15   1.44834494909721E+00   1.44834494909721E+00   0.00000000000000E+00   0.00000000000000E+00
      6.36849301101575E-14  -6.36849301101575E-14   0.00000000000000E+00   4.06891385887591E-15
      1.00000000000000E+00
      1.36963263184058E+00   1.36963263184058E+00   0.00000000000000E+00   0.00000000000000E+00   1.37013695126114E-05
      0.00000000000000E+00   1.37013695126114E-05   2.52560049642247E-15   0.00000000000000E+00   0.00000000000000E+00
      0.00000000000000E+00   0.00000000000000E+00  -1.37013835327260E-05   0.00000000000000E+00  -1.37013835327260E-05
      1.36719281729358E-15   1.50000000000000E+00   1.50000000000000E+00   0.00000000000000E+00   0.00000000000000E+00
     -7.16127901734332E-14   7.16127901734332E-14   0.00000000000000E+00   4.28776408181358E-15
      0.00000000000000E+00
      1.36963263184058E+00   1.36963263184058E+00   0.00000000000000E+00   0.00000000000000E+00   1.37008594790950E-05
      0.00000000000000E+00   1.37008594790950E-05   2.52543615073369E-15   0.00000000000000E+00   0.00000000000000E+00
      0.00000000000000E+00   0.00000000000000E+00  -1.37008597330348E-05   0.00000000000000E+00  -1.37008597330348E-05
      1.36719281183781E-15   1.50000000000000E+00   1.50000000000000E+00   0.00000000000000E+00   0.00000000000000E+00
     -4.54735672444217E-14   4.54735672444217E-14   0.00000000000000E+00   4.28775707605642E-15
      1.00000000000000E-03
      1.36963263184058E+00   1.36963263184058E+00   0.00000000000000E+00   0.00000000000000E+00   1.36995339288706E-05
      0.00000000000000E+00   1.36995339288706E-05   2.52497982451754E-15   0.00000000000000E+00   0.00000000000000E+00
      0.00000000000000E+00   0.00000000000000E+00  -1.36995475377383E-05   0.00000000000000E+00  -1.36995475377383E-05
      1.36719149170911E-15   1.50005000000000E+00   1.50005000000000E+00   0.00000000000000E+00   0.00000000000000E+00
     -3.94445079363217E-14   3.94445079363217E-14   0.00000000000000E+00   4.28796900320080E-15
      2.98666666666667E-03
      1.36963263184058E+00   1.36963263184058E+00   0.00000000000000E+00   0.00000000000000E+00   1.36976387909230E-05
      0.00000000000000E+00   1.36976387909230E-05   2.52429928973009E-15   0.00000000000000E+00   0.00000000000000E+00
      0.00000000000000E+00   0.00000000000000E+00  -1.36976644949748E-05   0.00000000000000E+00  -1.36976644949748E-05
      1.36718887902991E-15   1.50014933333333E+00   1.50014933333333E+00   0.00000000000000E+00   0.00000000000000E+00
     -7.18663423847938E-15   7.18663423847938E-15   0.00000000000000E+00   4.28839101046633E-15
      6.85404444444444E-03
      1.36963263184058E+00   1.36963263184058E+00   0.00000000000000E+00   0.00000000000000E+00   1.36939294492820E-05
      0.00000000000000E+00   1.36939294492820E-05   2.52296725544124E-15   0.00000000000000E+00   0.00000000000000E+00
      0.00000000000000E+00   0.00000000000000E+00  -1.36939410531474E-05   0.00000000000000E+00  -1.36939410531474E-05
      1.36718379292345E-15   1.50034270222222E+00   1.50034270222222E+00   0.00000000000000E+00   0.00000000000000E+00
      5.72724474082939E-14  -5.72724474082939E-14   0.00000000000000E+00   4.28921214455326E-15
      1.45888000000000E-02
      1.36963263184058E+00   1.36963263184058E+00   0.00000000000000E+00   0.00000000000000E+00   1.36865253013738E-05
      0.00000000000000E+00   1.36865253013738E-05   2.52030952353895E-15   0.00000000000000E+00   0.00000000000000E+00
      0.00000000000000E+00   0.00000000000000E+00  -1.36865486964935E-05   0.00000000000000E+00  -1.36865486964935E-05
      1.36717362068808E-15   1.50072944000000E+00   1.50072944000000E+00   0.00000000000000E+00   0.00000000000000E+00
      1.83553561109603E-13  -1.83553561109603E-13   0.00000000000000E+00   4.29085498302437E-15
      3.00583111111111E-02
      1.36963263184058E+00   1.36963263184058E+00   0.00000000000000E+00   0.00000000000000E+00   1.36723056923465E-05
      0.00000000000000E+00   1.36723056923465E-05   2.51520632756047E-15   0.00000000000000E+00   0.00000000000000E+00
      0.00000000000000E+00   0.00000000000000E+00  -1.36723028756380E-05   0.00000000000000E+00  -1.36723028756380E-05
      1.36715327287072E-15   1.50150291555556E+00   1.50150291555556E+00   0.00000000000000E+00   0.00000000000000E+00
      1.53915480268615E-13  -1.53915480268615E-13   0.00000000000000E+00   4.29418847033169E-15
      4.44965214814815E-02
      1.36963263184058E+00   1.36963263184058E+00   0.00000000000000E+00   0.00000000000000E+00   1.36607931072681E-05
      0.00000000000000E+00   1.36607931072681E-05   2.51100296293638E-15   0.00000000000000E+00   0.00000000000000E+00
      0.00000000000000E+00   0.00000000000000E+00  -1.36608024108700E-05   0.00000000000000E+00  -1.36608024108700E-05
      1.36713428922286E-15   1.50222482607407E+00   1.50222482607407E+00   0.00000000000000E+00   0.00000000000000E+00
     -2.14491572824307E-13   2.14491572824307E-13   0.00000000000000E+00   4.29736338284391E-15
      7.18328664493827E-02
      1.36963263184058E+00   1.36963263184058E+00   0.00000000000000E+00   0.00000000000000E+00   1.36401297782567E-05
      0.00000000000000E+00   1.36401297782567E-05   2.50336070763423E-15   0.00000000000000E+00   0.00000000000000E+00
      0.00000000000000E+00   0.00000000000000E+00  -1.36401647277146E-05   0.00000000000000E+00  -1.36401647277146E-05
      1.36709839186466E-15   1.50359164332247E+00   1.50359164332247E+00   0.00000000000000E+00   0.00000000000000E+00
     -1.61361352797140E-13   1.61361352797140E-13   0.00000000000000E+00   4.30326524347081E-15
      1.23225194989037E-01
      1.36963263184058E+00   1.36963263184058E+00   0.00000000000000E+00   0.00000000000000E+00   1.36011763356273E-05
      0.00000000000000E+00   1.36011763356273E-05   2.48899443416248E-15   0.00000000000000E+00   0.00000000000000E+00
      0.00000000000000E+00   0.00000000000000E+00  -1.36012034853708E-05   0.00000000000000E+00  -1.36012034853708E-05
      1.36703090489844E-15   1.50616125974945E+00   1.50616125974945E+00   0.00000000000000E+00   0.00000000000000E+00
     -6.79924339618395E-14   6.79924339618395E-14   0.00000000000000E+00   4.31436530875239E-15
      2.20528003690783E-01
      1.36963263184058E+00   1.36963263184058E+00   0.00000000000000E+00   0.00000000000000E+00   1.35273528538130E-05
      0.00000000000000E+00   1.35273528538130E-05   2.46192176934240E-15   0.00000000000000E+00   0.00000000000000E+00
      0.00000000000000E+00   0.00000000000000E+00  -1.35273625092468E-05   0.00000000000000E+00  -1.35273625092468E-05
      1.36690313559691E-15   1.51102640018454E+00   1.51102640018454E+00   0.00000000000000E+00   0.00000000000000E+00
      1.18528518999814E-13  -1.18528518999814E-13   0.00000000000000E+00   4.33539432010988E-15
      4.11241508746204E-01
      1.36963263184058E+00   1.36963263184058E+00   0.00000000000000E+00   0.00000000000000E+00   1.33832501310775E-05
      0.00000000000000E+00   1.33832501310775E-05   2.40963555334417E-15   0.00000000000000E+00   0.00000000000000E+00
      0.00000000000000E+00   0.00000000000000E+00  -1.33832758015486E-05   0.00000000000000E+00  -1.33832758015486E-05
      1.36665272876427E-15   1.52056207543731E+00   1.52056207543731E+00   0.00000000000000E+00   0.00000000000000E+00
      2.43027619589395E-13  -2.43027619589395E-13   0.00000000000000E+00   4.37670490287194E-15
      7.79954285186685E-01
      1.36963263184058E+00   1.36963263184058E+00   0.00000000000000E+00   0.00000000000000E+00   1.31059098256362E-05
      0.00000000000000E+00   1.31059098256362E-05   2.31137690487302E-15   0.00000000000000E+00   0.00000000000000E+00
      0.00000000000000E+00   0.00000000000000E+00  -1.31059186981125E-05   0.00000000000000E+00  -1.31059186981125E-05
      1.36616869636975E-15   1.53899771425933E+00   1.53899771425933E+00   0.00000000000000E+00   0.00000000000000E+00
      9.47437764019264E-14  -9.47437764019264E-14   0.00000000000000E+00   4.45681542586003E-15
      1.00000000000000E+00
      1.36963263184058E+00   1.36963263184058E+00   0.00000000000000E+00   0.00000000000000E+00   1.29410096536609E-05
      0.00000000000000E+00   1.29410096536609E-05   2.25469231540886E-15   0.00000000000000E+00   0.00000000000000E+00
      0.00000000000000E+00   0.00000000000000E+00  -1.29410265738913E-05   0.00000000000000E+00  -1.29410265738913E-05
      1.36587989010278E-15   1.55000000000000E+00   1.55000000000000E+00   0.00000000000000E+00   0.00000000000000E+00
     -9.79864197595095E-15   9.79864197595095E-15   0.00000000000000E+00   4.50472556546986E-15
      0.00000000000000E+00
      1.36963263184058E+00   1.36963263184058E+00   0.00000000000000E+00   0.00000000000000E+00   1.29409709879393E-05
      0.00000000000000E+00   1.29409709879393E-05   2.25468561224664E-15   0.00000000000000E+00   0.00000000000000E+00
      0.00000000000000E+00   0.00000000000000E+00  -1.29410130877166E-05   0.00000000000000E+00  -1.29410130877166E-05
      1.36587988977837E-15   1.55000000000000E+00   1.55000000000000E+00   0.00000000000000E+00   0.00000000000000E+00
     -1.00912444077627E-14   1.00912444077627E-14   0.00000000000000E+00   4.50472542327162E-15
      1.00000000000000E-03
      1.36963263184058E+00   1.36963263184058E+00   0.00000000000000E+00   0.00000000000000E+00   1.29400119751270E-05
      0.00000000000000E+00   1.29400119751270E-05   2.25436796917710E-15   0.00000000000000E+00   0.00000000000000E+00
      0.00000000000000E+00   0.00000000000000E+00  -1.29400297507688E-05   0.00000000000000E+00  -1.29400297507688E-05
      1.36587857464369E-15   1.55005000000000E+00   1.55005000000000E+00   0.00000000000000E+00   0.00000000000000E+00
     -1.36781771385794E-14   1.36781771385794E-14   0.00000000000000E+00   4.50494219793642E-15
      2.97333333333333E-03
      1.36963263184058E+00   1.36963263184058E+00   0.00000000000000E+00   0.00000000000000E+00   1.29378949238261E-05
      0.00000000000000E+00   1.29378949238261E-05   2.25369645200241E-15   0.00000000000000E+00   0.00000000000000E+00
      0.00000000000000E+00   0.00000000000000E+00  -1.29379222967853E-05   0.00000000000000E+00  -1.29379222967853E-05
      1.36587597717489E-15   1.55014866666667E+00   1.55014866666667E+00   0.00000000000000E+00   0.00000000000000E+00
     -2.33505119336947E-14   2.33505119336947E-14   0.00000000000000E+00   4.50536918343579E-15
      6.70951111111111E-03
      1.36963263184058E+00   1.36963263184058E+00   0.00000000000000E+00   0.00000000000000E+00   1.29340214620436E-05
      0.00000000000000E+00   1.29340214620436E-05   2.25243173117094E-15   0.00000000000000E+00   0.00000000000000E+00
      0.00000000000000E+00   0.00000000000000E+00  -1.29339915744646E-05   0.00000000000000E+00  -1.29339915744646E-05
      1.36587106029243E-15   1.55033547555556E+00   1.55033547555556E+00   0.00000000000000E+00   0.00000000000000E+00
     -3.73243277086285E-14   3.73243277086285E-14   0.00000000000000E+00   4.50617738791217E-15
      1.40822352592593E-02
      1.36963263184058E+00   1.36963263184058E+00   0.00000000000000E+00   0.00000000000000E+00   1.29258568340792E-05
      0.00000000000000E+00   1.29258568340792E-05   2.24983882711228E-15   0.00000000000000E+00   0.00000000000000E+00
      0.00000000000000E+00   0.00000000000000E+00  -1.29258721984885E-05   0.00000000000000E+00  -1.29258721984885E-05
      1.36586135141258E-15   1.55070411176296E+00   1.55070411176296E+00   0.00000000000000E+00   0.00000000000000E+00
     -9.62125299597109E-14   9.62125299597109E-14   0.00000000000000E+00   4.50777440068180E-15
      2.82378656237037E-02
      1.36963263184058E+00   1.36963263184058E+00   0.00000000000000E+00   0.00000000000000E+00   1.29102345803262E-05
      0.00000000000000E+00   1.29102345803262E-05   2.24486759641588E-15   0.00000000000000E+00   0.00000000000000E+00
      0.00000000000000E+00   0.00000000000000E+00  -1.29102456529939E-05   0.00000000000000E+00  -1.29102456529939E-05
      1.36584271032305E-15   1.55141189328119E+00   1.55141189328119E+00   0.00000000000000E+00   0.00000000000000E+00
     -2.12097085352907E-13   2.12097085352907E-13   0.00000000000000E+00   4.51084113331399E-15
      5.63603846144000E-02
      1.36963263184058E+00   1.36963263184058E+00   0.00000000000000E+00   0.00000000000000E+00   1.28792446117115E-05
      0.00000000000000E+00   1.28792446117115E-05   2.23503608279264E-15   0.00000000000000E+00   0.00000000000000E+00
      0.00000000000000E+00   0.00000000000000E+00  -1.28792378272376E-05   0.00000000000000E+00  -1.28792378272376E-05
      1.36580567794197E-15   1.55281801923072E+00   1.55281801923072E+00   0.00000000000000E+00   0.00000000000000E+00
     -4.30140805344951E-13   4.30140805344951E-13   0.00000000000000E+00   4.51693205334317E-15
      1.11855488756041E-01
      1.36963263184058E+00   1.36963263184058E+00   0.00000000000000E+00   0.00000000000000E+00   1.28194833240481E-05
      0.00000000000000E+00   1.28194833240481E-05   2.21609214593302E-15   0.00000000000000E+00   0.00000000000000E+00
      0.00000000000000E+00   0.00000000000000E+00  -1.28194601221342E-05   0.00000000000000E+00  -1.28194601221342E-05
      1.36573264718304E-15   1.55559277443780E+00   1.55559277443780E+00   0.00000000000000E+00   0.00000000000000E+00
     -1.60020756142188E-13   1.60020756142188E-13   0.00000000000000E+00   4.52885139842599E-15
      2.17666153986102E-01
      1.36963263184058E+00   1.36963263184058E+00   0.00000000000000E+00   0.00000000000000E+00   1.27057302820446E-05
      0.00000000000000E+00   1.27057302820446E-05   2.18058189117660E-15   0.00000000000000E+00   0.00000000000000E+00
      0.00000000000000E+00   0.00000000000000E+00  -1.27057711946952E-05   0.00000000000000E+00  -1.27057711946952E-05
      1.36559340819391E-15   1.56088330769931E+00   1.56088330769931E+00   0.00000000000000E+00   0.00000000000000E+00
      3.29816128514754E-13  -3.29816128514754E-13   0.00000000000000E+00   4.55158388908805E-15
      4.27876675576491E-01
      1.36963263184058E+00   1.36963263184058E+00   0.00000000000000E+00   0.00000000000000E+00   1.24810899866990E-05
      0.00000000000000E+00   1.24810899866990E-05   2.11274020893829E-15   0.00000000000000E+00   0.00000000000000E+00
      0.00000000000000E+00   0.00000000000000E+00  -1.24810627615187E-05   0.00000000000000E+00  -1.24810627615187E-05
      1.36531678890212E-15   1.57139383377882E+00   1.57139383377882E+00   0.00000000000000E+00   0.00000000000000E+00
      5.28537077078210E-13  -5.28537077078210E-13   0.00000000000000E+00   4.59687606800151E-15
      8.31480877030038E-01
      1.36963263184058E+00   1.36963263184058E+00   0.00000000000000E+00   0.00000000000000E+00   1.20534441886663E-05
      0.00000000000000E+00   1.20534441886663E-05   1.99418252052267E-15   0.00000000000000E+00   0.00000000000000E+00
      0.00000000000000E+00   0.00000000000000E+00  -1.20534568776684E-05   0.00000000000000E+00  -1.20534568776684E-05
      1.36478574714209E-15   1.59157404385150E+00   1.59157404385150E+00   0.00000000000000E+00   0.00000000000000E+00
      1.51060520367579E-13  -1.51060520367579E-13   0.00000000000000E+00   4.68395420825582E-15
      1.00000000000000E+00
      1.36963263184058E+00   1.36963263184058E+00   0.00000000000000E+00   0.00000000000000E+00   1.18756315800864E-05
      0.00000000000000E+00   1.18756315800864E-05   1.95008298909297E-15   0.00000000000000E+00   0.00000000000000E+00
      0.00000000000000E+00   0.00000000000000E+00  -1.18756642742103E-05   0.00000000000000E+00  -1.18756642742103E-05
      1.36456404404340E-15   1.60000000000000E+00   1.60000000000000E+00   0.00000000000000E+00   0.00000000000000E+00
     -1.79133898775340E-14   1.79133898775340E-14   0.00000000000000E+00   4.72029837418513E-15
      0.00000000000000E+00
      1.36963263184058E+00   1.36963263184058E+00   0.00000000000000E+00   0.00000000000000E+00   1.18756430253071E-05
      0.00000000000000E+00   1.18756430253071E-05   1.95008520668089E-15   0.00000000000000E+00   0.00000000000000E+00
      0.00000000000000E+00   0.00000000000000E+00  -1.18756787815974E-05   0.00000000000000E+00  -1.18756787815974E-05
      1.36456404421209E-15   1.60000000000000E+00   1.60000000000000E+00   0.00000000000000E+00   0.00000000000000E+00
     -1.76626659578796E-14   1.76626659578796E-14   0.00000000000000E+00   4.72029843425731E-15
      1.00000000000000E-03
      1.36963263184058E+00   1.36963263184058E+00   0.00000000000000E+00   0.00000000000000E+00   1.18748587798341E-05
      0.00000000000000E+00   1.18748587798341E-05   1.94987492705306E-15   0.00000000000000E+00   0.00000000000000E+00
      0.00000000000000E+00   0.00000000000000E+00  -1.18748672721156E-05   0.00000000000000E+00  -1.18748672721156E-05
      1.36456273187932E-15   1.60005000000000E+00   1.60005000000000E+00   0.00000000000000E+00   0.00000000000000E+00
     -1.42825332255822E-14   1.42825332255822E-14   0.00000000000000E+00   4.72051562574955E-15
      2.97333333333333E-03
      1.36963263184058E+00   1.36963263184058E+00   0.00000000000000E+00   0.00000000000000E+00   1.18733027809974E-05
      0.00000000000000E+00   1.18733027809974E-05   1.94946410763108E-15   0.00000000000000E+00   0.00000000000000E+00
      0.00000000000000E+00   0.00000000000000E+00  -1.18733142208314E-05   0.00000000000000E+00  -1.18733142208314E-05
      1.36456014241143E-15   1.60014866666667E+00   1.60014866666667E+00   0.00000000000000E+00   0.00000000000000E+00
     -7.44299000217985E-15   7.44299000217985E-15   0.00000000000000E+00   4.72094442541050E-15
      6.92000000000000E-03
      1.36963263184058E+00   1.36963263184058E+00   0.00000000000000E+00   0.00000000000000E+00   1.18703729265945E-05
      0.00000000000000E+00   1.18703729265945E-05   1.94867064780521E-15   0.00000000000000E+00   0.00000000000000E+00
      0.00000000000000E+00   0.00000000000000E+00  -1.18704495597176E-05   0.00000000000000E+00  -1.18704495597176E-05
      1.36455496516137E-15   1.60034600000000E+00   1.60034600000000E+00   0.00000000000000E+00   0.00000000000000E+00
      4.38002377149976E-15  -4.38002377149976E-15   0.00000000000000E+00   4.72180378766072E-15
      1.46554666666667E-02
      1.36963263184058E+00   1.36963263184058E+00   0.00000000000000E+00   0.00000000000000E+00   1.18645018762583E-05
      0.00000000000000E+00   1.18645018762583E-05   1.94709678436995E-15   0.00000000000000E+00   0.00000000000000E+00
      0.00000000000000E+00   0.00000000000000E+00  -1.18644953192503E-05   0.00000000000000E+00  -1.18644953192503E-05
      1.36454481839447E-15   1.60073277333333E+00   1.60073277333333E+00   0.00000000000000E+00   0.00000000000000E+00
      6.13971320157939E-14  -6.13971320157939E-14   0.00000000000000E+00   4.72348168874180E-15
      1.83684906666667E-02
      1.36963263184058E+00   1.36963263184058E+00   0.00000000000000E+00   0.00000000000000E+00   1.18614235099587E-05
      0.00000000000000E+00   1.18614235099587E-05   1.94630139036484E-15   0.00000000000000E+00   0.00000000000000E+00
      0.00000000000000E+00   0.00000000000000E+00  -1.18613876728918E-05   0.00000000000000E+00  -1.18613876728918E-05
      1.36453994585803E-15   1.60091842453333E+00   1.60091842453333E+00   0.00000000000000E+00   0.00000000000000E+00
      1.13733748869264E-13  -1.13733748869264E-13   0.00000000000000E+00   4.72428089066982E-15
      2.56460177066667E-02
      1.36963263184058E+00   1.36963263184058E+00   0.00000000000000E+00   0.00000000000000E+00   1.18553981131220E-05
      0.00000000000000E+00   1.18553981131220E-05   1.94474802817952E-15   0.00000000000000E+00   0.00000000000000E+00
      0.00000000000000E+00   0.00000000000000E+00  -1.18554113390661E-05   0.00000000000000E+00  -1.18554113390661E-05
      1.36453039531417E-15   1.60128230088533E+00   1.60128230088533E+00   0.00000000000000E+00   0.00000000000000E+00
      2.13921116809116E-13  -2.13921116809116E-13   0.00000000000000E+00   4.72584772316823E-15
      4.02010717866667E-02
      1.36963263184058E+00   1.36963263184058E+00   0.00000000000000E+00   0.00000000000000E+00   1.18435757304894E-05
      0.00000000000000E+00   1.18435757304894E-05   1.94169516147591E-15   0.00000000000000E+00   0.00000000000000E+00
      0.00000000000000E+00   0.00000000000000E+00  -1.18435754958616E-05   0.00000000000000E+00  -1.18435754958616E-05
      1.36451129342431E-15   1.60201005358933E+00   1.60201005358933E+00   0.00000000000000E+00   0.00000000000000E+00
      3.18212528861816E-13  -3.18212528861816E-13   0.00000000000000E+00   4.72899860846279E-15
      6.87289777834667E-02
      1.36963263184058E+00   1.36963263184058E+00   0.00000000000000E+00   0.00000000000000E+00   1.18209978742507E-05
      0.00000000000000E+00   1.18209978742507E-05   1.93587908009777E-15   0.00000000000000E+00   0.00000000000000E+00
      0.00000000000000E+00   0.00000000000000E+00  -1.18209965389881E-05   0.00000000000000E+00  -1.18209965389881E-05
      1.36447384636637E-15   1.60343644888917E+00   1.60343644888917E+00   0.00000000000000E+00   0.00000000000000E+00
      1.50701270313485E-13  -1.50701270313485E-13   0.00000000000000E+00   4.73523853860281E-15
      1.25024045617152E-01
      1.36963263184058E+00   1.36963263184058E+00   0.00000000000000E+00   0.00000000000000E+00   1.17765550040330E-05
      0.00000000000000E+00   1.17765550040330E-05   1.92463829125371E-15   0.00000000000000E+00   0.00000000000000E+00