DF-ISE text

Info {
  version   = 1.0
  type      = xyplot
  datasets  = [
    "time"
    "source OuterVoltage" "source InnerVoltage" "source QuasiFermiPotential" "source DisplacementCurrent" "source eCurrent"
    "source hCurrent" "source TotalCurrent" "source Charge" "drain OuterVoltage" "drain InnerVoltage"
    "drain QuasiFermiPotential" "drain DisplacementCurrent" "drain eCurrent" "drain hCurrent" "drain TotalCurrent"
    "drain Charge" "gate OuterVoltage" "gate InnerVoltage" "gate QuasiFermiPotential" "gate DisplacementCurrent"
    "gate eCurrent" "gate hCurrent" "gate TotalCurrent" "gate Charge" ]
  functions = [
    Time
    OuterVoltage InnerVoltage QuasiFermiPotential DisplacementCurrent eCurrent
    hCurrent TotalCurrent Charge OuterVoltage InnerVoltage
    QuasiFermiPotential DisplacementCurrent eCurrent hCurrent TotalCurrent
    Charge OuterVoltage InnerVoltage QuasiFermiPotential DisplacementCurrent
    eCurrent hCurrent TotalCurrent Charge ]
}

Data {
      0.00000000000000E+00
      1.31821542192841E+00   1.31821542192841E+00   0.00000000000000E+00   0.00000000000000E+00   1.78168060674726E-05
      0.00000000000000E+00   1.78168060674726E-05   3.85060708420489E-15   0.00000000000000E+00   0.00000000000000E+00
      0.00000000000000E+00   0.00000000000000E+00  -1.78090215977154E-05   0.00000000000000E+00  -1.78090215977154E-05
      1.37324422579288E-15   1.31821542192841E+00   1.31821542192841E+00   0.00000000000000E+00   0.00000000000000E+00
     -9.25917652780190E-13   9.25917652780190E-13   0.00000000000000E+00   3.61779845669889E-15
      5.00000000000000E-03
      1.31821542192841E+00   1.31821542192841E+00   0.00000000000000E+00   0.00000000000000E+00   1.78219435933852E-05
      0.00000000000000E+00   1.78219435933852E-05   3.85101924992160E-15   0.00000000000000E+00   0.00000000000000E+00
      0.00000000000000E+00   0.00000000000000E+00  -1.78190151718070E-05   0.00000000000000E+00  -1.78190151718070E-05
      1.37323736839473E-15   1.32212434481876E+00   1.32212434481876E+00   0.00000000000000E+00   0.00000000000000E+00
      1.02768780019138E-10  -1.02768780019138E-10   0.00000000000000E+00   3.61822851323989E-15
      1.00000000000000E-02
      1.31821542192841E+00   1.31821542192841E+00   0.00000000000000E+00   0.00000000000000E+00   1.78409458021441E-05
      0.00000000000000E+00   1.78409458021441E-05   3.85367693501370E-15   0.00000000000000E+00   0.00000000000000E+00
      0.00000000000000E+00   0.00000000000000E+00  -1.78372548674771E-05   0.00000000000000E+00  -1.78372548674771E-05
      1.37323951631878E-15   1.32603326770912E+00   1.32603326770912E+00   0.00000000000000E+00   0.00000000000000E+00
      2.12504258028990E-10  -2.12504258028990E-10   0.00000000000000E+00   3.61693289946612E-15
      1.50000000000000E-02
      1.31821542192841E+00   1.31821542192841E+00   0.00000000000000E+00   0.00000000000000E+00   1.76720983236869E-05
      0.00000000000000E+00   1.76720983236869E-05   3.83247968689474E-15   0.00000000000000E+00   0.00000000000000E+00
      0.00000000000000E+00   0.00000000000000E+00  -1.76690932718430E-05   0.00000000000000E+00  -1.76690932718430E-05
      1.37314418232951E-15   1.32994219059948E+00   1.32994219059948E+00   0.00000000000000E+00   0.00000000000000E+00
      1.63980712288079E-10  -1.63980712288079E-10   0.00000000000000E+00   3.64124927985655E-15
      2.00000000000000E-02
      1.31821542192841E+00   1.31821542192841E+00   0.00000000000000E+00   0.00000000000000E+00   1.76785529945699E-05
      0.00000000000000E+00   1.76785529945699E-05   3.83319723884953E-15   0.00000000000000E+00   0.00000000000000E+00
      0.00000000000000E+00   0.00000000000000E+00  -1.76745979172365E-05   0.00000000000000E+00  -1.76745979172365E-05
      1.37313825319559E-15   1.33385111348984E+00   1.33385111348984E+00   0.00000000000000E+00   0.00000000000000E+00
      2.66572459557300E-10  -2.66572459557300E-10   0.00000000000000E+00   3.64066320877617E-15
      2.50000000000000E-02
      1.31821542192841E+00   1.31821542192841E+00   0.00000000000000E+00   0.00000000000000E+00   1.75532660931996E-05
      0.00000000000000E+00   1.75532660931996E-05   3.81885346938332E-15   0.00000000000000E+00   0.00000000000000E+00
      0.00000000000000E+00   0.00000000000000E+00  -1.75505269191447E-05   0.00000000000000E+00  -1.75505269191447E-05
      1.37307186650639E-15   1.33776003638020E+00   1.33776003638020E+00   0.00000000000000E+00   0.00000000000000E+00
      1.89251234670872E-10  -1.89251234670872E-10   0.00000000000000E+00   3.66992276908884E-15
      3.00000000000000E-02
      1.31821542192841E+00   1.31821542192841E+00   0.00000000000000E+00   0.00000000000000E+00   1.75215424828640E-05
      0.00000000000000E+00   1.75215424828640E-05   3.81492754905820E-15   0.00000000000000E+00   0.00000000000000E+00
      0.00000000000000E+00   0.00000000000000E+00  -1.75197695507024E-05   0.00000000000000E+00  -1.75197695507024E-05
      1.37304923651724E-15   1.34166895927055E+00   1.34166895927055E+00   0.00000000000000E+00   0.00000000000000E+00
      2.46119916466593E-10  -2.46119916466593E-10   0.00000000000000E+00   3.67693465657285E-15
      3.50000000000000E-02
      1.31821542192841E+00   1.31821542192841E+00   0.00000000000000E+00   0.00000000000000E+00   1.74742869686061E-05
      0.00000000000000E+00   1.74742869686061E-05   3.80997206912408E-15   0.00000000000000E+00   0.00000000000000E+00
      0.00000000000000E+00   0.00000000000000E+00  -1.74769154579757E-05   0.00000000000000E+00  -1.74769154579757E-05
      1.37302273754482E-15   1.34557788216091E+00   1.34557788216091E+00   0.00000000000000E+00   0.00000000000000E+00
      2.77067768835233E-10  -2.77067768835233E-10   0.00000000000000E+00   3.68813695094421E-15
      4.00000000000000E-02
      1.31821542192841E+00   1.31821542192841E+00   0.00000000000000E+00   0.00000000000000E+00   1.73042760349842E-05
      0.00000000000000E+00   1.73042760349842E-05   3.79006136346397E-15   0.00000000000000E+00   0.00000000000000E+00
      0.00000000000000E+00   0.00000000000000E+00  -1.72987363123798E-05   0.00000000000000E+00  -1.72987363123798E-05
      1.37294219510795E-15   1.34948680505127E+00   1.34948680505127E+00   0.00000000000000E+00   0.00000000000000E+00
      6.41350919403864E-11  -6.41350919403864E-11   0.00000000000000E+00   3.73930340563669E-15
      4.50000000000000E-02
      1.31821542192841E+00   1.31821542192841E+00   0.00000000000000E+00   0.00000000000000E+00   1.73044713117976E-05
      0.00000000000000E+00   1.73044713117976E-05   3.79046590483723E-15   0.00000000000000E+00   0.00000000000000E+00
      0.00000000000000E+00   0.00000000000000E+00  -1.73021110970274E-05   0.00000000000000E+00  -1.73021110970274E-05
      1.37293471802328E-15   1.35339572794163E+00   1.35339572794163E+00   0.00000000000000E+00   0.00000000000000E+00
      1.69631035547806E-10  -1.69631035547806E-10   0.00000000000000E+00   3.73909273772199E-15
      5.00000000000000E-02
      1.31821542192841E+00   1.31821542192841E+00   0.00000000000000E+00   0.00000000000000E+00   1.73067326757116E-05
      0.00000000000000E+00   1.73067326757116E-05   3.79065649464507E-15   0.00000000000000E+00   0.00000000000000E+00
      0.00000000000000E+00   0.00000000000000E+00  -1.73049119009413E-05   0.00000000000000E+00  -1.73049119009413E-05
      1.37292669434804E-15   1.35730465083199E+00   1.35730465083199E+00   0.00000000000000E+00   0.00000000000000E+00
      2.69812094161090E-10  -2.69812094161090E-10   0.00000000000000E+00   3.73894548224413E-15
      5.50000000000000E-02
      1.31821542192841E+00   1.31821542192841E+00   0.00000000000000E+00   0.00000000000000E+00   1.70421883316349E-05
      0.00000000000000E+00   1.70421883316349E-05   3.75353492770643E-15   0.00000000000000E+00   0.00000000000000E+00
      0.00000000000000E+00   0.00000000000000E+00  -1.70404034875898E-05   0.00000000000000E+00  -1.70404034875898E-05
      1.37282851810079E-15   1.36121357372234E+00   1.36121357372234E+00   0.00000000000000E+00   0.00000000000000E+00
      9.61775905885414E-12  -9.61775905885414E-12   0.00000000000000E+00   3.79763119854950E-15
      6.00000000000000E-02
      1.31821542192841E+00   1.31821542192841E+00   0.00000000000000E+00   0.00000000000000E+00   1.69875335824080E-05
      0.00000000000000E+00   1.69875335824080E-05   3.74525308435865E-15   0.00000000000000E+00   0.00000000000000E+00
      0.00000000000000E+00   0.00000000000000E+00  -1.69864238132450E-05   0.00000000000000E+00  -1.69864238132450E-05
      1.37280418091383E-15   1.36512249661270E+00   1.36512249661270E+00   0.00000000000000E+00   0.00000000000000E+00
      3.85329246271665E-11  -3.85329246271665E-11   0.00000000000000E+00   3.80987235227775E-15
      6.50000000000000E-02
      1.31821542192841E+00   1.31821542192841E+00   0.00000000000000E+00   0.00000000000000E+00   1.68483000139172E-05
      0.00000000000000E+00   1.68483000139172E-05   3.71991501413533E-15   0.00000000000000E+00   0.00000000000000E+00
      0.00000000000000E+00   0.00000000000000E+00  -1.68476891305689E-05   0.00000000000000E+00  -1.68476891305689E-05
      1.37276286819204E-15   1.36903141950306E+00   1.36903141950306E+00   0.00000000000000E+00   0.00000000000000E+00
      1.70735248030449E-11  -1.70735248030449E-11   0.00000000000000E+00   3.82994831197999E-15
      7.00000000000000E-02
      1.31821542192841E+00   1.31821542192841E+00   0.00000000000000E+00   0.00000000000000E+00   1.67835756306207E-05
      0.00000000000000E+00   1.67835756306207E-05   3.70805744962570E-15   0.00000000000000E+00   0.00000000000000E+00
      0.00000000000000E+00   0.00000000000000E+00  -1.67825425189638E-05   0.00000000000000E+00  -1.67825425189638E-05
      1.37274232202215E-15   1.37294034239342E+00   1.37294034239342E+00   0.00000000000000E+00   0.00000000000000E+00
      4.72687831409225E-11  -4.72687831409225E-11   0.00000000000000E+00   3.84202610275836E-15
      7.50000000000000E-02
      1.31821542192841E+00   1.31821542192841E+00   0.00000000000000E+00   0.00000000000000E+00   1.67331082646026E-05
      0.00000000000000E+00   1.67331082646026E-05   3.70039344105017E-15   0.00000000000000E+00   0.00000000000000E+00
      0.00000000000000E+00   0.00000000000000E+00  -1.67322503502634E-05   0.00000000000000E+00  -1.67322503502634E-05
      1.37272577156090E-15   1.37684926528378E+00   1.37684926528378E+00   0.00000000000000E+00   0.00000000000000E+00
      5.94123509519668E-11  -5.94123509519668E-11   0.00000000000000E+00   3.85689257261261E-15
      8.00000000000000E-02
      1.31821542192841E+00   1.31821542192841E+00   0.00000000000000E+00   0.00000000000000E+00   1.66728648006760E-05
      0.00000000000000E+00   1.66728648006760E-05   3.69084179744700E-15   0.00000000000000E+00   0.00000000000000E+00
      0.00000000000000E+00   0.00000000000000E+00  -1.66721782619865E-05   0.00000000000000E+00  -1.66721782619865E-05
      1.37270799302637E-15   1.38075818817413E+00   1.38075818817413E+00   0.00000000000000E+00   0.00000000000000E+00
      5.64895208382424E-11  -5.64895208382424E-11   0.00000000000000E+00   3.87414150498479E-15
      8.50000000000000E-02
      1.31821542192841E+00   1.31821542192841E+00   0.00000000000000E+00   0.00000000000000E+00   1.66034824806924E-05
      0.00000000000000E+00   1.66034824806924E-05   3.67984299258158E-15   0.00000000000000E+00   0.00000000000000E+00
      0.00000000000000E+00   0.00000000000000E+00  -1.66037805766591E-05   0.00000000000000E+00  -1.66037805766591E-05
      1.37269022626939E-15   1.38466711106449E+00   1.38466711106449E+00   0.00000000000000E+00   0.00000000000000E+00
      3.81879874237222E-11  -3.81879874237222E-11   0.00000000000000E+00   3.89381889771250E-15
      9.00000000000000E-02
      1.31821542192841E+00   1.31821542192841E+00   0.00000000000000E+00   0.00000000000000E+00   1.65439189993781E-05
      0.00000000000000E+00   1.65439189993781E-05   3.66995029449454E-15   0.00000000000000E+00   0.00000000000000E+00
      0.00000000000000E+00   0.00000000000000E+00  -1.65441389845599E-05   0.00000000000000E+00  -1.65441389845599E-05
      1.37267411230181E-15   1.38857603395485E+00   1.38857603395485E+00   0.00000000000000E+00   0.00000000000000E+00
      3.40296558166160E-11  -3.40296558166160E-11   0.00000000000000E+00   3.91131373196458E-15
      9.50000000000000E-02
      1.31821542192841E+00   1.31821542192841E+00   0.00000000000000E+00   0.00000000000000E+00   1.64812457250977E-05
      0.00000000000000E+00   1.64812457250977E-05   3.65947570464887E-15   0.00000000000000E+00   0.00000000000000E+00
      0.00000000000000E+00   0.00000000000000E+00  -1.64803580510698E-05   0.00000000000000E+00  -1.64803580510698E-05
      1.37265840295146E-15   1.39248495684521E+00   1.39248495684521E+00   0.00000000000000E+00   0.00000000000000E+00
      2.38368281554382E-11  -2.38368281554382E-11   0.00000000000000E+00   3.92977174705258E-15
      1.00000000000000E-01
      1.31821542192841E+00   1.31821542192841E+00   0.00000000000000E+00   0.00000000000000E+00   1.64358828283240E-05
      0.00000000000000E+00   1.64358828283240E-05   3.65233132366275E-15   0.00000000000000E+00   0.00000000000000E+00
      0.00000000000000E+00   0.00000000000000E+00  -1.64354409668876E-05   0.00000000000000E+00  -1.64354409668876E-05
      1.37264468752148E-15   1.39639387973556E+00   1.39639387973556E+00   0.00000000000000E+00   0.00000000000000E+00
      3.50298337426541E-11  -3.50298337426541E-11   0.00000000000000E+00   3.94492658371205E-15
      1.05000000000000E-01
      1.31821542192841E+00   1.31821542192841E+00   0.00000000000000E+00   0.00000000000000E+00   1.63824921516256E-05
      0.00000000000000E+00   1.63824921516256E-05   3.64403615452708E-15   0.00000000000000E+00   0.00000000000000E+00
      0.00000000000000E+00   0.00000000000000E+00  -1.63838592749711E-05   0.00000000000000E+00  -1.63838592749711E-05
      1.37263045201014E-15   1.40030280262592E+00   1.40030280262592E+00   0.00000000000000E+00   0.00000000000000E+00
      2.88839339875959E-11  -2.88839339875959E-11   0.00000000000000E+00   3.96280555018883E-15
      1.10000000000000E-01
      1.31821542192841E+00   1.31821542192841E+00   0.00000000000000E+00   0.00000000000000E+00   1.63280484937521E-05
      0.00000000000000E+00   1.63280484937521E-05   3.63552465608722E-15   0.00000000000000E+00   0.00000000000000E+00
      0.00000000000000E+00   0.00000000000000E+00  -1.63274398949008E-05   0.00000000000000E+00  -1.63274398949008E-05
      1.37261606724302E-15   1.40421172551628E+00   1.40421172551628E+00   0.00000000000000E+00   0.00000000000000E+00
      1.16281231090506E-11  -1.16281231090506E-11   0.00000000000000E+00   3.98243569841482E-15
      1.15000000000000E-01
      1.31821542192841E+00   1.31821542192841E+00   0.00000000000000E+00   0.00000000000000E+00   1.62888895390033E-05
      0.00000000000000E+00   1.62888895390033E-05   3.62936509539108E-15   0.00000000000000E+00   0.00000000000000E+00
      0.00000000000000E+00   0.00000000000000E+00  -1.62882752417696E-05   0.00000000000000E+00  -1.62882752417696E-05
      1.37260359067940E-15   1.40812064840664E+00   1.40812064840664E+00   0.00000000000000E+00   0.00000000000000E+00
      3.08545090950464E-11  -3.08545090950464E-11   0.00000000000000E+00   3.99641284085018E-15
      1.20000000000000E-01
      1.31821542192841E+00   1.31821542192841E+00   0.00000000000000E+00   0.00000000000000E+00   1.62382383928093E-05
      0.00000000000000E+00   1.62382383928093E-05   3.62122086286011E-15   0.00000000000000E+00   0.00000000000000E+00
      0.00000000000000E+00   0.00000000000000E+00  -1.62380726506856E-05   0.00000000000000E+00  -1.62380726506856E-05
      1.37259023521914E-15   1.41202957129700E+00   1.41202957129700E+00   0.00000000000000E+00   0.00000000000000E+00
      2.41285869763577E-11  -2.41285869763577E-11   0.00000000000000E+00   4.01445356262596E-15
      1.25000000000000E-01
      1.31821542192841E+00   1.31821542192841E+00   0.00000000000000E+00   0.00000000000000E+00   1.61931926040174E-05
      0.00000000000000E+00   1.61931926040174E-05   3.61446257502453E-15   0.00000000000000E+00   0.00000000000000E+00
      0.00000000000000E+00   0.00000000000000E+00  -1.61918390393645E-05   0.00000000000000E+00  -1.61918390393645E-05
      1.37257719506022E-15   1.41593849418735E+00   1.41593849418735E+00   0.00000000000000E+00   0.00000000000000E+00
      2.14289129702513E-11  -2.14289129702513E-11   0.00000000000000E+00   4.03188977910628E-15
      1.30000000000000E-01
      1.31821542192841E+00   1.31821542192841E+00   0.00000000000000E+00   0.00000000000000E+00   1.61397178020968E-05
      0.00000000000000E+00   1.61397178020968E-05   3.60586676842527E-15   0.00000000000000E+00   0.00000000000000E+00
      0.00000000000000E+00   0.00000000000000E+00  -1.61397326211436E-05   0.00000000000000E+00  -1.61397326211436E-05
      1.37256386310754E-15   1.41984741707771E+00   1.41984741707771E+00   0.00000000000000E+00   0.00000000000000E+00
      5.50273476726277E-12  -5.50273476726277E-12   0.00000000000000E+00   4.05140329687031E-15
      1.35000000000000E-01
      1.31821542192841E+00   1.31821542192841E+00   0.00000000000000E+00   0.00000000000000E+00   1.60931170366280E-05
      0.00000000000000E+00   1.60931170366280E-05   3.59708473098589E-15   0.00000000000000E+00   0.00000000000000E+00
      0.00000000000000E+00   0.00000000000000E+00  -1.60924202289149E-05   0.00000000000000E+00  -1.60924202289149E-05
      1.37255214768885E-15   1.42375633996807E+00   1.42375633996807E+00   0.00000000000000E+00   0.00000000000000E+00
      2.14955276336131E-11  -2.14955276336131E-11   0.00000000000000E+00   4.06596420175203E-15
      1.40000000000000E-01
      1.31821542192841E+00   1.31821542192841E+00   0.00000000000000E+00   0.00000000000000E+00   1.60360853403619E-05
      0.00000000000000E+00   1.60360853403619E-05   3.58700541679012E-15   0.00000000000000E+00   0.00000000000000E+00
      0.00000000000000E+00   0.00000000000000E+00  -1.60352383965747E-05   0.00000000000000E+00  -1.60352383965747E-05
      1.37253955247089E-15   1.42766526285843E+00   1.42766526285843E+00   0.00000000000000E+00   0.00000000000000E+00
      8.73630188994082E-12  -8.73630188994082E-12   0.00000000000000E+00   4.08502475366122E-15
      1.45000000000000E-01
      1.31821542192841E+00   1.31821542192841E+00   0.00000000000000E+00   0.00000000000000E+00   1.59509355527146E-05
      0.00000000000000E+00   1.59509355527146E-05   3.56711341085595E-15   0.00000000000000E+00   0.00000000000000E+00
      0.00000000000000E+00   0.00000000000000E+00  -1.59507359170102E-05   0.00000000000000E+00  -1.59507359170102E-05
      1.37252885673057E-15   1.43157418574879E+00   1.43157418574879E+00   0.00000000000000E+00   0.00000000000000E+00
      1.93753658357848E-15  -1.93753658357848E-15   0.00000000000000E+00   4.10344664662562E-15
      1.50000000000000E-01
      1.31821542192841E+00   1.31821542192841E+00   0.00000000000000E+00   0.00000000000000E+00   1.58982814872809E-05
      0.00000000000000E+00   1.58982814872809E-05   3.55674904098470E-15   0.00000000000000E+00   0.00000000000000E+00
      0.00000000000000E+00   0.00000000000000E+00  -1.58979297332741E-05   0.00000000000000E+00  -1.58979297332741E-05
      1.37251738553144E-15   1.43548310863914E+00   1.43548310863914E+00   0.00000000000000E+00   0.00000000000000E+00
      1.37785597402221E-12  -1.37785597402221E-12   0.00000000000000E+00   4.12033518411885E-15
      1.55000000000000E-01
      1.31821542192841E+00   1.31821542192841E+00   0.00000000000000E+00   0.00000000000000E+00   1.58610809218056E-05
      0.00000000000000E+00   1.58610809218056E-05   3.55113790779364E-15   0.00000000000000E+00   0.00000000000000E+00
      0.00000000000000E+00   0.00000000000000E+00  -1.58606483169923E-05   0.00000000000000E+00  -1.58606483169923E-05
      1.37250544571290E-15   1.43939203152950E+00   1.43939203152950E+00   0.00000000000000E+00   0.00000000000000E+00
      9.64360482245459E-12  -9.64360482245459E-12   0.00000000000000E+00   4.13618046125456E-15
      1.60000000000000E-01
      1.31821542192841E+00   1.31821542192841E+00   0.00000000000000E+00   0.00000000000000E+00   1.58163881619076E-05
      0.00000000000000E+00   1.58163881619076E-05   3.54382772081270E-15   0.00000000000000E+00   0.00000000000000E+00
      0.00000000000000E+00   0.00000000000000E+00  -1.58160264077576E-05   0.00000000000000E+00  -1.58160264077576E-05
      1.37249325022998E-15   1.44330095441986E+00   1.44330095441986E+00   0.00000000000000E+00   0.00000000000000E+00
      4.08481686241879E-12  -4.08481686241879E-12   0.00000000000000E+00   4.15419401224528E-15
      1.65000000000000E-01
      1.31821542192841E+00   1.31821542192841E+00   0.00000000000000E+00   0.00000000000000E+00   1.57559489498849E-05
      0.00000000000000E+00   1.57559489498849E-05   3.53082319780135E-15   0.00000000000000E+00   0.00000000000000E+00
      0.00000000000000E+00   0.00000000000000E+00  -1.57557605271220E-05   0.00000000000000E+00  -1.57557605271220E-05
      1.37248223334988E-15   1.44720987731022E+00   1.44720987731022E+00   0.00000000000000E+00   0.00000000000000E+00
      2.18589102986068E-13  -2.18589102986068E-13   0.00000000000000E+00   4.17194002255197E-15
      1.70000000000000E-01
      1.31821542192841E+00   1.31821542192841E+00   0.00000000000000E+00   0.00000000000000E+00   1.57145475031020E-05
      0.00000000000000E+00   1.57145475031020E-05   3.52385414361645E-15   0.00000000000000E+00   0.00000000000000E+00
      0.00000000000000E+00   0.00000000000000E+00  -1.57144437668934E-05   0.00000000000000E+00  -1.57144437668934E-05
      1.37247036210369E-15   1.45111880020058E+00   1.45111880020058E+00   0.00000000000000E+00   0.00000000000000E+00
      2.34977205321126E-12  -2.34977205321126E-12   0.00000000000000E+00   4.18878780700914E-15
      1.75000000000000E-01
      1.31821542192841E+00   1.31821542192841E+00   0.00000000000000E+00   0.00000000000000E+00   1.56917999892119E-05
      0.00000000000000E+00   1.56917999892119E-05   3.52157987512931E-15   0.00000000000000E+00   0.00000000000000E+00
      0.00000000000000E+00   0.00000000000000E+00  -1.56936278781189E-05   0.00000000000000E+00  -1.56936278781189E-05
      1.37245859402278E-15   1.45502772309093E+00   1.45502772309093E+00   0.00000000000000E+00   0.00000000000000E+00
      2.79716306121155E-11  -2.79716306121155E-11   0.00000000000000E+00   4.20198500449668E-15
      1.80000000000000E-01
      1.31821542192841E+00   1.31821542192841E+00   0.00000000000000E+00   0.00000000000000E+00   1.56284371122854E-05
      0.00000000000000E+00   1.56284371122854E-05   3.50902745179273E-15   0.00000000000000E+00   0.00000000000000E+00
      0.00000000000000E+00   0.00000000000000E+00  -1.56282317783343E-05   0.00000000000000E+00  -1.56282317783343E-05
      1.37244653231839E-15   1.45893664598129E+00   1.45893664598129E+00   0.00000000000000E+00   0.00000000000000E+00
     -1.30192726292298E-13   1.30192726292298E-13   0.00000000000000E+00   4.22357943570666E-15
      1.85000000000000E-01
      1.31821542192841E+00   1.31821542192841E+00   0.00000000000000E+00   0.00000000000000E+00   1.56070701003996E-05
      0.00000000000000E+00   1.56070701003996E-05   3.50716494306919E-15   0.00000000000000E+00   0.00000000000000E+00
      0.00000000000000E+00   0.00000000000000E+00  -1.56082762715762E-05   0.00000000000000E+00  -1.56082762715762E-05
      1.37243472756974E-15   1.46284556887165E+00   1.46284556887165E+00   0.00000000000000E+00   0.00000000000000E+00
      2.64207527856983E-11  -2.64207527856983E-11   0.00000000000000E+00   4.23666398380614E-15
      1.90000000000000E-01
      1.31821542192841E+00   1.31821542192841E+00   0.00000000000000E+00   0.00000000000000E+00   1.55707304222303E-05
      0.00000000000000E+00   1.55707304222303E-05   3.50343793087789E-15   0.00000000000000E+00   0.00000000000000E+00
      0.00000000000000E+00   0.00000000000000E+00  -1.55701641113057E-05   0.00000000000000E+00  -1.55701641113057E-05
      1.37242136497308E-15   1.46675449176201E+00   1.46675449176201E+00   0.00000000000000E+00   0.00000000000000E+00
      7.86155988088059E-12  -7.86155988088059E-12   0.00000000000000E+00   4.25683506735972E-15
      1.95000000000000E-01
      1.31821542192841E+00   1.31821542192841E+00   0.00000000000000E+00   0.00000000000000E+00   1.55159215564625E-05
      0.00000000000000E+00   1.55159215564625E-05   3.49203172105857E-15   0.00000000000000E+00   0.00000000000000E+00
      0.00000000000000E+00   0.00000000000000E+00  -1.55158171084913E-05   0.00000000000000E+00  -1.55158171084913E-05
      1.37240998557308E-15   1.47066341465237E+00   1.47066341465237E+00   0.00000000000000E+00   0.00000000000000E+00
      1.33746510615902E-12  -1.33746510615902E-12   0.00000000000000E+00   4.27509236224927E-15
      2.00000000000000E-01
      1.31821542192841E+00   1.31821542192841E+00   0.00000000000000E+00   0.00000000000000E+00   1.54935822827725E-05
      0.00000000000000E+00   1.54935822827725E-05   3.48933756088861E-15   0.00000000000000E+00   0.00000000000000E+00
      0.00000000000000E+00   0.00000000000000E+00  -1.54965096132384E-05   0.00000000000000E+00  -1.54965096132384E-05
      1.37239870080997E-15   1.47457233754272E+00   1.47457233754272E+00   0.00000000000000E+00   0.00000000000000E+00
      3.64402493675883E-11  -3.64402493675883E-11   0.00000000000000E+00   4.28685921740395E-15
      2.05000000000000E-01
      1.31821542192841E+00   1.31821542192841E+00   0.00000000000000E+00   0.00000000000000E+00   1.54252304623880E-05
      0.00000000000000E+00   1.54252304623880E-05   3.47482062183358E-15   0.00000000000000E+00   0.00000000000000E+00
      0.00000000000000E+00   0.00000000000000E+00  -1.54251299322945E-05   0.00000000000000E+00  -1.54251299322945E-05
      1.37238659461157E-15   1.47848126043308E+00   1.47848126043308E+00   0.00000000000000E+00   0.00000000000000E+00
     -5.05265683709303E-16   5.05265683709303E-16   0.00000000000000E+00   4.30983905551620E-15
      2.10000000000000E-01
      1.31821542192841E+00   1.31821542192841E+00   0.00000000000000E+00   0.00000000000000E+00   1.53972510093465E-05
      0.00000000000000E+00   1.53972510093465E-05   3.47220467132705E-15   0.00000000000000E+00   0.00000000000000E+00
      0.00000000000000E+00   0.00000000000000E+00  -1.53972357396874E-05   0.00000000000000E+00  -1.53972357396874E-05
      1.37237394830035E-15   1.48239018332344E+00   1.48239018332344E+00   0.00000000000000E+00   0.00000000000000E+00
      3.79621723761689E-12  -3.79621723761689E-12   0.00000000000000E+00   4.32656300515441E-15
      2.15000000000000E-01
      1.31821542192841E+00   1.31821542192841E+00   0.00000000000000E+00   0.00000000000000E+00   1.53690872626069E-05
      0.00000000000000E+00   1.53690872626069E-05   3.46992688510797E-15   0.00000000000000E+00   0.00000000000000E+00
      0.00000000000000E+00   0.00000000000000E+00  -1.53690617065250E-05   0.00000000000000E+00  -1.53690617065250E-05
      1.37236107803890E-15   1.48629910621380E+00   1.48629910621380E+00   0.00000000000000E+00   0.00000000000000E+00
      3.78306449821603E-12  -3.78306449821603E-12   0.00000000000000E+00   4.34389856103511E-15
      2.20000000000000E-01
      1.31821542192841E+00   1.31821542192841E+00   0.00000000000000E+00   0.00000000000000E+00   1.53437457762823E-05
      0.00000000000000E+00   1.53437457762823E-05   3.46874860480236E-15   0.00000000000000E+00   0.00000000000000E+00
      0.00000000000000E+00   0.00000000000000E+00  -1.53436639303643E-05   0.00000000000000E+00  -1.53436639303643E-05
      1.37234800626043E-15   1.49020802910416E+00   1.49020802910416E+00   0.00000000000000E+00   0.00000000000000E+00
      3.83253230201189E-12  -3.83253230201189E-12   0.00000000000000E+00   4.36124330892941E-15
      2.25000000000000E-01
      1.31821542192841E+00   1.31821542192841E+00   0.00000000000000E+00   0.00000000000000E+00   1.53251981393064E-05
      0.00000000000000E+00   1.53251981393064E-05   3.46780464980347E-15   0.00000000000000E+00   0.00000000000000E+00
      0.00000000000000E+00   0.00000000000000E+00  -1.53262113532138E-05   0.00000000000000E+00  -1.53262113532138E-05
      1.37233599309404E-15   1.49411695199451E+00   1.49411695199451E+00   0.00000000000000E+00   0.00000000000000E+00
      2.98634234302906E-11  -2.98634234302906E-11   0.00000000000000E+00   4.37451059364522E-15
      2.30000000000000E-01
      1.31821542192841E+00   1.31821542192841E+00   0.00000000000000E+00   0.00000000000000E+00   1.52916860106405E-05
      0.00000000000000E+00   1.52916860106405E-05   3.46536982520618E-15   0.00000000000000E+00   0.00000000000000E+00
      0.00000000000000E+00   0.00000000000000E+00  -1.52917504153450E-05   0.00000000000000E+00  -1.52917504153450E-05
      1.37232221125432E-15   1.49802587488487E+00   1.49802587488487E+00   0.00000000000000E+00   0.00000000000000E+00
      7.91224769884101E-12  -7.91224769884101E-12   0.00000000000000E+00   4.39534229890336E-15
      2.35000000000000E-01
      1.31821542192841E+00   1.31821542192841E+00   0.00000000000000E+00   0.00000000000000E+00   1.52667091044907E-05
      0.00000000000000E+00   1.52667091044907E-05   3.46412655556662E-15   0.00000000000000E+00   0.00000000000000E+00
      0.00000000000000E+00   0.00000000000000E+00  -1.52661513849717E-05   0.00000000000000E+00  -1.52661513849717E-05
      1.37230926349598E-15   1.50193479777523E+00   1.50193479777523E+00   0.00000000000000E+00   0.00000000000000E+00
      1.05054606854375E-11  -1.05054606854375E-11   0.00000000000000E+00   4.41232532389782E-15
      2.40000000000000E-01
      1.31821542192841E+00   1.31821542192841E+00   0.00000000000000E+00   0.00000000000000E+00   1.52365366773463E-05
      0.00000000000000E+00   1.52365366773463E-05   3.46156267467570E-15   0.00000000000000E+00   0.00000000000000E+00