DF-ISE text

Info {
  version   = 1.0
  type      = xyplot
  datasets  = [
    "time"
    "source OuterVoltage" "source InnerVoltage" "source QuasiFermiPotential" "source DisplacementCurrent" "source eCurrent"
    "source hCurrent" "source TotalCurrent" "source Charge" "drain OuterVoltage" "drain InnerVoltage"
    "drain QuasiFermiPotential" "drain DisplacementCurrent" "drain eCurrent" "drain hCurrent" "drain TotalCurrent"
    "drain Charge" "gate OuterVoltage" "gate InnerVoltage" "gate QuasiFermiPotential" "gate DisplacementCurrent"
    "gate eCurrent" "gate hCurrent" "gate TotalCurrent" "gate Charge" ]
  functions = [
    Time
    OuterVoltage InnerVoltage QuasiFermiPotential DisplacementCurrent eCurrent
    hCurrent TotalCurrent Charge OuterVoltage InnerVoltage
    QuasiFermiPotential DisplacementCurrent eCurrent hCurrent TotalCurrent
    Charge OuterVoltage InnerVoltage QuasiFermiPotential DisplacementCurrent
    eCurrent hCurrent TotalCurrent Charge ]
}

Data {
      0.00000000000000E+00
      1.31821542192841E+00   1.31821542192841E+00   0.00000000000000E+00   0.00000000000000E+00   1.78168067936589E-05
      0.00000000000000E+00   1.78168067936589E-05   3.85060712383888E-15   0.00000000000000E+00   0.00000000000000E+00
      0.00000000000000E+00   0.00000000000000E+00  -1.78090219755017E-05   0.00000000000000E+00  -1.78090219755017E-05
      1.37324422594083E-15   1.31821542192841E+00   1.31821542192841E+00   0.00000000000000E+00   0.00000000000000E+00
     -9.25917147084120E-13   9.25917147084120E-13   0.00000000000000E+00   3.61779845631132E-15
      1.00000000000000E-03
      1.31821542192841E+00   1.31821542192841E+00   0.00000000000000E+00   0.00000000000000E+00   1.78238997191244E-05
      0.00000000000000E+00   1.78238997191244E-05   3.85165034235292E-15   0.00000000000000E+00   0.00000000000000E+00
      0.00000000000000E+00   0.00000000000000E+00  -1.78219440865036E-05   0.00000000000000E+00  -1.78219440865036E-05
      1.37324779519050E-15   1.31839720650648E+00   1.31839720650648E+00   0.00000000000000E+00   0.00000000000000E+00
      4.07376092425016E-12  -4.07376092425016E-12   0.00000000000000E+00   3.61779063133665E-15
      2.96000000000000E-03
      1.31821542192841E+00   1.31821542192841E+00   0.00000000000000E+00   0.00000000000000E+00   1.78409879325206E-05
      0.00000000000000E+00   1.78409879325206E-05   3.85415880361457E-15   0.00000000000000E+00   0.00000000000000E+00
      0.00000000000000E+00   0.00000000000000E+00  -1.78399439758170E-05   0.00000000000000E+00  -1.78399439758170E-05
      1.37325657674183E-15   1.31875350427950E+00   1.31875350427950E+00   0.00000000000000E+00   0.00000000000000E+00
      1.40729557972437E-11  -1.40729557972437E-11   0.00000000000000E+00   3.61774267859262E-15
      6.56640000000000E-03
      1.31821542192841E+00   1.31821542192841E+00   0.00000000000000E+00   0.00000000000000E+00   1.78701688870185E-05
      0.00000000000000E+00   1.78701688870185E-05   3.85894053458252E-15   0.00000000000000E+00   0.00000000000000E+00
      0.00000000000000E+00   0.00000000000000E+00  -1.78684879699620E-05   0.00000000000000E+00  -1.78684879699620E-05
      1.37327339254681E-15   1.31940909218185E+00   1.31940909218185E+00   0.00000000000000E+00   0.00000000000000E+00
      3.24998714813260E-11  -3.24998714813260E-11   0.00000000000000E+00   3.61763273587299E-15
      1.35387733333333E-02
      1.31821542192841E+00   1.31821542192841E+00   0.00000000000000E+00   0.00000000000000E+00   1.79436121043519E-05
      0.00000000000000E+00   1.79436121043519E-05   3.86879366154977E-15   0.00000000000000E+00   0.00000000000000E+00
      0.00000000000000E+00   0.00000000000000E+00  -1.79394426418882E-05   0.00000000000000E+00  -1.79394426418882E-05
      1.37330815507378E-15   1.32067656212641E+00   1.32067656212641E+00   0.00000000000000E+00   0.00000000000000E+00
      6.88783303322039E-11  -6.88783303322039E-11   0.00000000000000E+00   3.61723203454864E-15
      2.61820103111111E-02
      1.31821542192841E+00   1.31821542192841E+00   0.00000000000000E+00   0.00000000000000E+00   1.80637374838756E-05
      0.00000000000000E+00   1.80637374838756E-05   3.88446078303256E-15   0.00000000000000E+00   0.00000000000000E+00
      0.00000000000000E+00   0.00000000000000E+00  -1.80490911696534E-05   0.00000000000000E+00  -1.80490911696534E-05
      1.37336313755340E-15   1.32297490762588E+00   1.32297490762588E+00   0.00000000000000E+00   0.00000000000000E+00
      1.27131633254257E-10  -1.27131633254257E-10   0.00000000000000E+00   3.61751305856493E-15
      2.76570546251852E-02
      1.31821542192841E+00   1.31821542192841E+00   0.00000000000000E+00   0.00000000000000E+00   1.80793413337960E-05
      0.00000000000000E+00   1.80793413337960E-05   3.88672417876727E-15   0.00000000000000E+00   0.00000000000000E+00
      0.00000000000000E+00   0.00000000000000E+00  -1.80845680100357E-05   0.00000000000000E+00  -1.80845680100357E-05
      1.37337096463434E-15   1.32324304793415E+00   1.32324304793415E+00   0.00000000000000E+00   0.00000000000000E+00
      1.35281079061804E-10  -1.35281079061804E-10   0.00000000000000E+00   3.61730403885878E-15
      2.90435962804148E-02
      1.31821542192841E+00   1.31821542192841E+00   0.00000000000000E+00   0.00000000000000E+00   1.80970658777576E-05
      0.00000000000000E+00   1.80970658777576E-05   3.88909044325437E-15   0.00000000000000E+00   0.00000000000000E+00
      0.00000000000000E+00   0.00000000000000E+00  -1.81092027662443E-05   0.00000000000000E+00  -1.81092027662443E-05
      1.37337918888441E-15   1.32349509982392E+00   1.32349509982392E+00   0.00000000000000E+00   0.00000000000000E+00
      1.43643834307084E-10  -1.43643834307084E-10   0.00000000000000E+00   3.61699174244828E-15
      3.17427307025952E-02
      1.31821542192841E+00   1.31821542192841E+00   0.00000000000000E+00   0.00000000000000E+00   1.81461165504137E-05
      0.00000000000000E+00   1.81461165504137E-05   3.89482106121650E-15   0.00000000000000E+00   0.00000000000000E+00
      0.00000000000000E+00   0.00000000000000E+00  -1.81451299523945E-05   0.00000000000000E+00  -1.81451299523945E-05
      1.37339891058266E-15   1.32398576083602E+00   1.32398576083602E+00   0.00000000000000E+00   0.00000000000000E+00
      1.63422462456139E-10  -1.63422462456139E-10   0.00000000000000E+00   3.61579519534459E-15
      3.41359632235951E-02
      1.31821542192841E+00   1.31821542192841E+00   0.00000000000000E+00   0.00000000000000E+00   1.81887693274603E-05
      0.00000000000000E+00   1.81887693274603E-05   3.90030690958734E-15   0.00000000000000E+00   0.00000000000000E+00
      0.00000000000000E+00   0.00000000000000E+00  -1.81730202316279E-05   0.00000000000000E+00  -1.81730202316279E-05
      1.37341755120686E-15   1.32442081360007E+00   1.32442081360007E+00   0.00000000000000E+00   0.00000000000000E+00
      1.82067982172222E-10  -1.82067982172222E-10   0.00000000000000E+00   3.61452173896392E-15
      3.47143277495034E-02
      1.31821542192841E+00   1.31821542192841E+00   0.00000000000000E+00   0.00000000000000E+00   1.82037379772823E-05
      0.00000000000000E+00   1.82037379772823E-05   3.90185541453737E-15   0.00000000000000E+00   0.00000000000000E+00
      0.00000000000000E+00   0.00000000000000E+00  -1.81906476015800E-05   0.00000000000000E+00  -1.81906476015800E-05
      1.37342267699483E-15   1.32452595135139E+00   1.32452595135139E+00   0.00000000000000E+00   0.00000000000000E+00
      1.87296260202545E-10  -1.87296260202545E-10   0.00000000000000E+00   3.61408766685089E-15
      3.52772692213875E-02
      1.31821542192841E+00   1.31821542192841E+00   0.00000000000000E+00   0.00000000000000E+00   1.82182386881678E-05
      0.00000000000000E+00   1.82182386881678E-05   3.90380217328495E-15   0.00000000000000E+00   0.00000000000000E+00
      0.00000000000000E+00   0.00000000000000E+00  -1.82096614720494E-05   0.00000000000000E+00  -1.82096614720494E-05
      1.37342885910326E-15   1.32462828542933E+00   1.32462828542933E+00   0.00000000000000E+00   0.00000000000000E+00
      1.93778898675516E-10  -1.93778898675516E-10   0.00000000000000E+00   3.61343005750946E-15
      3.55437281847459E-02
      1.31821542192841E+00   1.31821542192841E+00   0.00000000000000E+00   0.00000000000000E+00   1.82280105398924E-05
      0.00000000000000E+00   1.82280105398924E-05   3.90483978062721E-15   0.00000000000000E+00   0.00000000000000E+00
      0.00000000000000E+00   0.00000000000000E+00  -1.82217145050180E-05   0.00000000000000E+00  -1.82217145050180E-05
      1.37343203168177E-15   1.32467672355956E+00   1.32467672355956E+00   0.00000000000000E+00   0.00000000000000E+00
      1.97183702741503E-10  -1.97183702741503E-10   0.00000000000000E+00   3.61306137363853E-15
      3.60411182496817E-02
      1.31821542192841E+00   1.31821542192841E+00   0.00000000000000E+00   0.00000000000000E+00   1.80108718254689E-05
      0.00000000000000E+00   1.80108718254689E-05   3.87975604823951E-15   0.00000000000000E+00   0.00000000000000E+00
      0.00000000000000E+00   0.00000000000000E+00  -1.80076409576802E-05   0.00000000000000E+00  -1.80076409576802E-05
      1.37336828510490E-15   1.32476714140265E+00   1.32476714140265E+00   0.00000000000000E+00   0.00000000000000E+00
      1.12427717890825E-10  -1.12427717890825E-10   0.00000000000000E+00   3.62731504824449E-15
      3.67374643405919E-02
      1.31821542192841E+00   1.31821542192841E+00   0.00000000000000E+00   0.00000000000000E+00   1.77389177930373E-05
      0.00000000000000E+00   1.77389177930373E-05   3.84457405951498E-15   0.00000000000000E+00   0.00000000000000E+00
      0.00000000000000E+00   0.00000000000000E+00  -1.77349597707512E-05   0.00000000000000E+00  -1.77349597707512E-05
      1.37327698677441E-15   1.32489372638298E+00   1.32489372638298E+00   0.00000000000000E+00   0.00000000000000E+00
     -1.20305543653402E-11   1.20305543653402E-11   0.00000000000000E+00   3.64725033776206E-15
      3.79723180751392E-02
      1.31821542192841E+00   1.31821542192841E+00   0.00000000000000E+00   0.00000000000000E+00   1.73064864155212E-05
      0.00000000000000E+00   1.73064864155212E-05   3.77316809866348E-15   0.00000000000000E+00   0.00000000000000E+00
      0.00000000000000E+00   0.00000000000000E+00  -1.73047532997318E-05   0.00000000000000E+00  -1.73047532997318E-05
      1.37309630574422E-15   1.32511820374810E+00   1.32511820374810E+00   0.00000000000000E+00   0.00000000000000E+00
     -1.27011149578393E-10   1.27011149578393E-10   0.00000000000000E+00   3.66575683983598E-15
      3.92071718096865E-02
      1.31821542192841E+00   1.31821542192841E+00   0.00000000000000E+00   0.00000000000000E+00   1.69415015873234E-05
      0.00000000000000E+00   1.69415015873234E-05   3.68456832600362E-15   0.00000000000000E+00   0.00000000000000E+00
      0.00000000000000E+00   0.00000000000000E+00  -1.69408306317524E-05   0.00000000000000E+00  -1.69408306317524E-05
      1.37291335452759E-15   1.32534268111321E+00   1.32534268111321E+00   0.00000000000000E+00   0.00000000000000E+00
     -3.31960882117868E-12   3.31960882117868E-12   0.00000000000000E+00   3.64872728033689E-15
      4.13969790989503E-02
      1.31821542192841E+00   1.31821542192841E+00   0.00000000000000E+00   0.00000000000000E+00   1.64209820484239E-05
      0.00000000000000E+00   1.64209820484239E-05   3.52550631926587E-15   0.00000000000000E+00   0.00000000000000E+00
      0.00000000000000E+00   0.00000000000000E+00  -1.64207660200691E-05   0.00000000000000E+00  -1.64207660200691E-05
      1.37256618599454E-15   1.32574075430735E+00   1.32574075430735E+00   0.00000000000000E+00   0.00000000000000E+00
     -8.38852636773900E-12   8.38852636773900E-12   0.00000000000000E+00   3.65115188520015E-15
      4.42291298597316E-02
      1.31821542192841E+00   1.31821542192841E+00   0.00000000000000E+00   0.00000000000000E+00   1.59148044204544E-05
      0.00000000000000E+00   1.59148044204544E-05   3.32250015287480E-15   0.00000000000000E+00   0.00000000000000E+00
      0.00000000000000E+00   0.00000000000000E+00  -1.59148089194922E-05   0.00000000000000E+00  -1.59148089194922E-05
      1.37208953621732E-15   1.32625559563843E+00   1.32625559563843E+00   0.00000000000000E+00   0.00000000000000E+00
     -3.74320738541602E-16   3.74320738541602E-16   0.00000000000000E+00   3.65148738434454E-15
      4.89116191175567E-02
      1.31821542192841E+00   1.31821542192841E+00   0.00000000000000E+00   0.00000000000000E+00   1.51926875158972E-05
      0.00000000000000E+00   1.51926875158972E-05   2.99498709828625E-15   0.00000000000000E+00   0.00000000000000E+00
      0.00000000000000E+00   0.00000000000000E+00  -1.51927245055336E-05   0.00000000000000E+00  -1.51927245055336E-05
      1.37125239477597E-15   1.32710679997249E+00   1.32710679997249E+00   0.00000000000000E+00   0.00000000000000E+00
      7.46088740199323E-14  -7.46088740199323E-14   0.00000000000000E+00   3.65340365647345E-15
      5.77771321123721E-02
      1.31821542192841E+00   1.31821542192841E+00   0.00000000000000E+00   0.00000000000000E+00   1.39269576988338E-05
      0.00000000000000E+00   1.39269576988338E-05   2.41396928344297E-15   0.00000000000000E+00   0.00000000000000E+00
      0.00000000000000E+00   0.00000000000000E+00  -1.39269644676334E-05   0.00000000000000E+00  -1.39269644676334E-05
      1.36965043687906E-15   1.32871841351164E+00   1.32871841351164E+00   0.00000000000000E+00   0.00000000000000E+00
      8.96328285293228E-14  -8.96328285293228E-14   0.00000000000000E+00   3.65577983809976E-15
      7.45625033825560E-02
      1.31821542192841E+00   1.31821542192841E+00   0.00000000000000E+00   0.00000000000000E+00   1.17335817103769E-05
      0.00000000000000E+00   1.17335817103769E-05   1.73484842202259E-15   0.00000000000000E+00   0.00000000000000E+00
      0.00000000000000E+00   0.00000000000000E+00  -1.17335728329369E-05   0.00000000000000E+00  -1.17335728329369E-05
      1.36662092334750E-15   1.33176973514577E+00   1.33176973514577E+00   0.00000000000000E+00   0.00000000000000E+00
      2.70458169460062E-14  -2.70458169460062E-14   0.00000000000000E+00   3.65647054493404E-15
      1.06566611271040E-01
      1.31821542192841E+00   1.31821542192841E+00   0.00000000000000E+00   0.00000000000000E+00   8.04325332299936E-06
      0.00000000000000E+00   8.04325332299936E-06   1.18577506308454E-15   0.00000000000000E+00   0.00000000000000E+00
      0.00000000000000E+00   0.00000000000000E+00  -8.04327738275574E-06   0.00000000000000E+00  -8.04327738275574E-06
      1.36085937577701E-15   1.33758758839483E+00   1.33758758839483E+00   0.00000000000000E+00   0.00000000000000E+00
     -3.44322587238361E-14   3.44322587238361E-14   0.00000000000000E+00   3.64492580067397E-15
      1.66307612662877E-01
      1.31821542192841E+00   1.31821542192841E+00   0.00000000000000E+00   0.00000000000000E+00   2.69901541663222E-06
      0.00000000000000E+00   2.69901541663222E-06   2.25697950931724E-16   0.00000000000000E+00   0.00000000000000E+00
      0.00000000000000E+00   0.00000000000000E+00  -2.69908521345700E-06   0.00000000000000E+00  -2.69908521345700E-06
      1.35015968099961E-15   1.34844758112642E+00   1.34844758112642E+00   0.00000000000000E+00   0.00000000000000E+00
      3.29725139718102E-13  -3.29725139718102E-13   0.00000000000000E+00   3.59611831797678E-15
      1.75567467878611E-01
      1.31821542192841E+00   1.31821542192841E+00   0.00000000000000E+00   0.00000000000000E+00   2.13379603051163E-06
      0.00000000000000E+00   2.13379603051163E-06   8.08212431410173E-17   0.00000000000000E+00   0.00000000000000E+00
      0.00000000000000E+00   0.00000000000000E+00  -2.13372304894527E-06   0.00000000000000E+00  -2.13372304894527E-06
      1.34850584424163E-15   1.35013087999982E+00   1.35013087999982E+00   0.00000000000000E+00   0.00000000000000E+00
      1.31698782956521E-12  -1.31698782956521E-12   0.00000000000000E+00   3.58984173436117E-15
      1.79765268909745E-01
      1.31821542192841E+00   1.31821542192841E+00   0.00000000000000E+00   0.00000000000000E+00   2.07318681279813E-06
      0.00000000000000E+00   2.07318681279813E-06   1.55100755896812E-17   0.00000000000000E+00   0.00000000000000E+00
      0.00000000000000E+00   0.00000000000000E+00  -2.07324978722635E-06   0.00000000000000E+00  -2.07324978722635E-06
      1.34775566279538E-15   1.35089397548909E+00   1.35089397548909E+00   0.00000000000000E+00   0.00000000000000E+00
      1.90532737410777E-12  -1.90532737410777E-12   0.00000000000000E+00   3.59139545099736E-15
      1.81864169425311E-01
      1.31821542192841E+00   1.31821542192841E+00   0.00000000000000E+00   0.00000000000000E+00   2.05602184111009E-06
      0.00000000000000E+00   2.05602184111009E-06  -1.70677720293802E-17   0.00000000000000E+00   0.00000000000000E+00
      0.00000000000000E+00   0.00000000000000E+00  -2.05595836643593E-06   0.00000000000000E+00  -2.05595836643593E-06
      1.34738052372853E-15   1.35127552323373E+00   1.35127552323373E+00   0.00000000000000E+00   0.00000000000000E+00
      1.02198996046576E-13  -1.02198996046576E-13   0.00000000000000E+00   3.59275126614535E-15
      1.81870947124893E-01
      1.31821542192841E+00   1.31821542192841E+00   0.00000000000000E+00   0.00000000000000E+00   1.98648077492015E-06
      0.00000000000000E+00   1.98648077492015E-06  -1.71960686339990E-17   0.00000000000000E+00   0.00000000000000E+00
      0.00000000000000E+00   0.00000000000000E+00  -1.98613170565338E-06   0.00000000000000E+00  -1.98613170565338E-06
      1.34737963982894E-15   1.35127675531499E+00   1.35127675531499E+00   0.00000000000000E+00   0.00000000000000E+00
      1.27104393263269E-12  -1.27104393263269E-12   0.00000000000000E+00   3.59113292539417E-15
      1.81871613598685E-01
      1.31821542192841E+00   1.31821542192841E+00   0.00000000000000E+00   0.00000000000000E+00   1.95479372884463E-06
      0.00000000000000E+00   1.95479372884463E-06  -1.72180104964562E-17   0.00000000000000E+00   0.00000000000000E+00
      0.00000000000000E+00   0.00000000000000E+00  -1.95520675088428E-06   0.00000000000000E+00  -1.95520675088428E-06
      1.34737957939814E-15   1.35127687646964E+00   1.35127687646964E+00   0.00000000000000E+00   0.00000000000000E+00
     -1.02151918775357E-13   1.02151918775357E-13   0.00000000000000E+00   3.59068533602891E-15
      1.81871721345281E-01
      1.31821542192841E+00   1.31821542192841E+00   0.00000000000000E+00   0.00000000000000E+00   1.90762661787592E-06
      0.00000000000000E+00   1.90762661787592E-06  -1.72448002087537E-17   0.00000000000000E+00   0.00000000000000E+00
      0.00000000000000E+00   0.00000000000000E+00  -1.90788733060527E-06   0.00000000000000E+00  -1.90788733060527E-06
      1.34737966077218E-15   1.35127689605631E+00   1.35127689605631E+00   0.00000000000000E+00   0.00000000000000E+00
     -1.45363575367690E-12   1.45363575367690E-12   0.00000000000000E+00   3.58995524287487E-15
      0.00000000000000E+00
      1.31821542192841E+00   1.31821542192841E+00   0.00000000000000E+00   0.00000000000000E+00   2.62828998501067E-06
      0.00000000000000E+00   2.62828998501067E-06  -1.71781510578675E-17   0.00000000000000E+00   0.00000000000000E+00
      0.00000000000000E+00   0.00000000000000E+00  -2.62840078402169E-06   0.00000000000000E+00  -2.62840078402169E-06
      1.34737642564053E-15   1.35127689605631E+00   1.35127689605631E+00   0.00000000000000E+00   0.00000000000000E+00
      6.19610200395796E-16  -6.19610200395796E-16   0.00000000000000E+00   3.60564976869538E-15
      1.00000000000000E-03
      1.31821542192841E+00   1.31821542192841E+00   0.00000000000000E+00   0.00000000000000E+00   2.61277759575003E-06
      0.00000000000000E+00   2.61277759575003E-06  -1.71954816647054E-17   0.00000000000000E+00   0.00000000000000E+00
      0.00000000000000E+00   0.00000000000000E+00  -2.61284734886084E-06   0.00000000000000E+00  -2.61284734886084E-06
      1.34737547407583E-15   1.35157561916026E+00   1.35157561916026E+00   0.00000000000000E+00   0.00000000000000E+00
      3.28715423548022E-13  -3.28715423548022E-13   0.00000000000000E+00   3.60641791081571E-15
      1.50000000000000E-03
      1.31821542192841E+00   1.31821542192841E+00   0.00000000000000E+00   0.00000000000000E+00   2.59817773819125E-06
      0.00000000000000E+00   2.59817773819125E-06  -1.72095789829216E-17   0.00000000000000E+00   0.00000000000000E+00
      0.00000000000000E+00   0.00000000000000E+00  -2.59828034459308E-06   0.00000000000000E+00  -2.59828034459308E-06
      1.34737501119667E-15   1.35172498071223E+00   1.35172498071223E+00   0.00000000000000E+00   0.00000000000000E+00
      3.70960947478881E-13  -3.70960947478881E-13   0.00000000000000E+00   3.60666160888974E-15
      2.26000000000000E-03
      1.31821542192841E+00   1.31821542192841E+00   0.00000000000000E+00   0.00000000000000E+00   2.50094587396935E-06
      0.00000000000000E+00   2.50094587396935E-06  -1.72969041257787E-17   0.00000000000000E+00   0.00000000000000E+00
      0.00000000000000E+00   0.00000000000000E+00  -2.50091110238680E-06   0.00000000000000E+00  -2.50091110238680E-06
      1.34737454347114E-15   1.35195201027122E+00   1.35195201027122E+00   0.00000000000000E+00   0.00000000000000E+00
      2.14734739528203E-14  -2.14734739528203E-14   0.00000000000000E+00   3.60535400309568E-15
      3.39493333333333E-03
      1.31821542192841E+00   1.31821542192841E+00   0.00000000000000E+00   0.00000000000000E+00   2.32814474087735E-06
      0.00000000000000E+00   2.32814474087735E-06  -1.74424270035818E-17   0.00000000000000E+00   0.00000000000000E+00
      0.00000000000000E+00   0.00000000000000E+00  -2.32799323196045E-06   0.00000000000000E+00  -2.32799323196045E-06
      1.34737397882450E-15   1.35229104107933E+00   1.35229104107933E+00   0.00000000000000E+00   0.00000000000000E+00
      2.26323590510949E-18  -2.26323590510949E-18   0.00000000000000E+00   3.60272234532616E-15
      4.52986666666667E-03
      1.31821542192841E+00   1.31821542192841E+00   0.00000000000000E+00   0.00000000000000E+00   2.15743598075591E-06
      0.00000000000000E+00   2.15743598075591E-06  -1.75879294259954E-17   0.00000000000000E+00   0.00000000000000E+00
      0.00000000000000E+00   0.00000000000000E+00  -2.15724499179962E-06   0.00000000000000E+00  -2.15724499179962E-06
      1.34737339962693E-15   1.35263007188743E+00   1.35263007188743E+00   0.00000000000000E+00   0.00000000000000E+00
     -2.48551071310226E-16   2.48551071310226E-16   0.00000000000000E+00   3.60022790405806E-15
      4.53956088888889E-03
      1.31821542192841E+00   1.31821542192841E+00   0.00000000000000E+00   0.00000000000000E+00   2.15591035468651E-06
      0.00000000000000E+00   2.15591035468651E-06  -1.75862452104530E-17   0.00000000000000E+00   0.00000000000000E+00
      0.00000000000000E+00   0.00000000000000E+00  -2.15594570939233E-06   0.00000000000000E+00  -2.15594570939233E-06
      1.34737339824882E-15   1.35263296777558E+00   1.35263296777558E+00   0.00000000000000E+00   0.00000000000000E+00
      1.23840917931819E-15  -1.23840917931819E-15   0.00000000000000E+00   3.60020681907583E-15
      4.55041841777778E-03
      1.31821542192841E+00   1.31821542192841E+00   0.00000000000000E+00   0.00000000000000E+00   2.15209874356567E-06
      0.00000000000000E+00   2.15209874356567E-06  -1.75854526658752E-17   0.00000000000000E+00   0.00000000000000E+00
      0.00000000000000E+00   0.00000000000000E+00  -2.15204922486099E-06   0.00000000000000E+00  -2.15204922486099E-06
      1.34737340561319E-15   1.35263621117031E+00   1.35263621117031E+00   0.00000000000000E+00   0.00000000000000E+00
      2.98385921797202E-15  -2.98385921797202E-15   0.00000000000000E+00   3.60013500633666E-15
      4.56105879608889E-03
      1.31821542192841E+00   1.31821542192841E+00   0.00000000000000E+00   0.00000000000000E+00   2.15203798331986E-06
      0.00000000000000E+00   2.15203798331986E-06  -1.75822098841563E-17   0.00000000000000E+00   0.00000000000000E+00
      0.00000000000000E+00   0.00000000000000E+00  -2.15215725079725E-06   0.00000000000000E+00  -2.15215725079725E-06
      1.34737339930859E-15   1.35263938969715E+00   1.35263938969715E+00   0.00000000000000E+00   0.00000000000000E+00
      2.17029816231637E-15  -2.17029816231637E-15   0.00000000000000E+00   3.60014612577714E-15
      4.56121285989985E-03
      1.31821542192841E+00   1.31821542192841E+00   0.00000000000000E+00   0.00000000000000E+00   2.11001226692069E-06
      0.00000000000000E+00   2.11001226692069E-06  -1.75991826735051E-17   0.00000000000000E+00   0.00000000000000E+00
      0.00000000000000E+00   0.00000000000000E+00  -2.11000546286141E-06   0.00000000000000E+00  -2.11000546286141E-06
      1.34737356286112E-15   1.35263943571957E+00   1.35263943571957E+00   0.00000000000000E+00   0.00000000000000E+00
      3.40445628688847E-14  -3.40445628688847E-14   0.00000000000000E+00   3.59921523154237E-15
      0.00000000000000E+00
      1.31821542192841E+00   1.31821542192841E+00   0.00000000000000E+00   0.00000000000000E+00   2.10198716793769E-06
      0.00000000000000E+00   2.10198716793769E-06  -1.76028584730362E-17   0.00000000000000E+00   0.00000000000000E+00
      0.00000000000000E+00   0.00000000000000E+00  -2.10197066585230E-06   0.00000000000000E+00  -2.10197066585230E-06
      1.34737359548998E-15   1.35263943571957E+00   1.35263943571957E+00   0.00000000000000E+00   0.00000000000000E+00
      8.26504213027725E-14  -8.26504213027725E-14   0.00000000000000E+00   3.59903097320366E-15
      1.00000000000000E-03
      1.31821542192841E+00   1.31821542192841E+00   0.00000000000000E+00   0.00000000000000E+00   2.11859731347524E-06
      0.00000000000000E+00   2.11859731347524E-06  -1.76091787217861E-17   0.00000000000000E+00   0.00000000000000E+00
      0.00000000000000E+00   0.00000000000000E+00  -2.11856863469466E-06   0.00000000000000E+00  -2.11856863469466E-06
      1.34737235846591E-15   1.35298679628385E+00   1.35298679628385E+00   0.00000000000000E+00   0.00000000000000E+00
      3.21916104183983E-13  -3.21916104183983E-13   0.00000000000000E+00   3.60071136399551E-15
      1.80666666666667E-03
      1.31821542192841E+00   1.31821542192841E+00   0.00000000000000E+00   0.00000000000000E+00   2.13567114230538E-06
      0.00000000000000E+00   2.13567114230538E-06  -1.76106809481848E-17   0.00000000000000E+00   0.00000000000000E+00
      0.00000000000000E+00   0.00000000000000E+00  -2.13579412623102E-06   0.00000000000000E+00  -2.13579412623102E-06
      1.34737132366853E-15   1.35326700047237E+00   1.35326700047237E+00   0.00000000000000E+00   0.00000000000000E+00
     -5.66549311291932E-14   5.66549311291932E-14   0.00000000000000E+00   3.60222907662785E-15
      2.40360000000000E-03
      1.31821542192841E+00   1.31821542192841E+00   0.00000000000000E+00   0.00000000000000E+00   2.10747238193872E-06
      0.00000000000000E+00   2.10747238193872E-06  -1.76270817943420E-17   0.00000000000000E+00   0.00000000000000E+00
      0.00000000000000E+00   0.00000000000000E+00  -2.10750138788856E-06   0.00000000000000E+00  -2.10750138788856E-06
      1.34737068475177E-15   1.35347435157187E+00   1.35347435157187E+00   0.00000000000000E+00   0.00000000000000E+00
     -1.06502127153734E-12   1.06502127153734E-12   0.00000000000000E+00   3.60254879108229E-15
      3.36665244444444E-03
      1.31821542192841E+00   1.31821542192841E+00   0.00000000000000E+00   0.00000000000000E+00   1.97324832341113E-06
      0.00000000000000E+00   1.97324832341113E-06  -1.76797847387239E-17   0.00000000000000E+00   0.00000000000000E+00
      0.00000000000000E+00   0.00000000000000E+00  -1.97326108192392E-06   0.00000000000000E+00  -1.97326108192392E-06
      1.34737007585807E-15   1.35380887801241E+00   1.35380887801241E+00   0.00000000000000E+00   0.00000000000000E+00
     -1.16082862810469E-12   1.16082862810469E-12   0.00000000000000E+00   3.60096759361538E-15
      3.36712268489583E-03
      1.31821542192841E+00   1.31821542192841E+00   0.00000000000000E+00   0.00000000000000E+00   1.97330335593396E-06
      0.00000000000000E+00   1.97330335593396E-06  -1.76793580365598E-17   0.00000000000000E+00   0.00000000000000E+00
      0.00000000000000E+00   0.00000000000000E+00  -1.97329896793545E-06   0.00000000000000E+00  -1.97329896793545E-06
      1.34737010463774E-15   1.35380904135540E+00   1.35380904135540E+00   0.00000000000000E+00   0.00000000000000E+00
     -5.07582867448663E-13   5.07582867448663E-13   0.00000000000000E+00   3.60087673035808E-15
      3.36722300285880E-03
      1.31821542192841E+00   1.31821542192841E+00   0.00000000000000E+00   0.00000000000000E+00   1.93737327155536E-06
      0.00000000000000E+00   1.93737327155536E-06  -1.76921892264123E-17   0.00000000000000E+00   0.00000000000000E+00
      0.00000000000000E+00   0.00000000000000E+00  -1.93747039357782E-06   0.00000000000000E+00  -1.93747039357782E-06
      1.34737022333727E-15   1.35380907620190E+00   1.35380907620190E+00   0.00000000000000E+00   0.00000000000000E+00
     -1.03133114749410E-12   1.03133114749410E-12   0.00000000000000E+00   3.60021380615731E-15
      3.36734204684151E-03
      1.31821542192841E+00   1.31821542192841E+00   0.00000000000000E+00   0.00000000000000E+00   4.12313341004905E-06
      0.00000000000000E+00   4.12313341004905E-06  -1.74695604415835E-17   0.00000000000000E+00   0.00000000000000E+00
      0.00000000000000E+00   0.00000000000000E+00  -4.12318969913584E-06   0.00000000000000E+00  -4.12318969913584E-06
      1.34736030806357E-15   1.35380911755309E+00   1.35380911755309E+00   0.00000000000000E+00   0.00000000000000E+00
     -1.43712417199115E-13   1.43712417199115E-13   0.00000000000000E+00   3.64852582087112E-15
      0.00000000000000E+00
      1.31821542192841E+00   1.31821542192841E+00   0.00000000000000E+00   0.00000000000000E+00   4.11608562962102E-06
      0.00000000000000E+00   4.11608562962102E-06  -1.74876186981368E-17   0.00000000000000E+00   0.00000000000000E+00